----- GAMESS execution script 'rungms' -----
This job is running on host chemcompute-node-0.novalocal
under operating system Linux at Mon Nov 15 06:18:04 UTC 2021
SLURM has assigned the following compute nodes to this run:
chemcompute-node-0
Available scratch disk space (Kbyte units) at beginning of the job is
Filesystem     1K-blocks     Used Available Use% Mounted on
/dev/sda1       62903276 16584184  46319092  27% /
GAMESS temporary binary files will be written to /scratch/306696
GAMESS supplementary output files will be written to /data/slurm/342710
Copying input file 342710.inp to your run's scratch directory...
The generated host list is
chemcompute-node-0.novalocal

 Distributed Data Interface kickoff program.
 Initiating 1 compute processes on 1 nodes to run the following command:
 /data/gamess-2019R1-ddi/gamess.00.x 342710 

          ******************************************************
          *         GAMESS VERSION = 30 JUN 2019 (R1)          *
          *             FROM IOWA STATE UNIVERSITY             *
          * M.W.SCHMIDT, K.K.BALDRIDGE, J.A.BOATZ, S.T.ELBERT, *
          *   M.S.GORDON, J.H.JENSEN, S.KOSEKI, N.MATSUNAGA,   *
          *          K.A.NGUYEN, S.J.SU, T.L.WINDUS,           *
          *       TOGETHER WITH M.DUPUIS, J.A.MONTGOMERY       *
          *         J.COMPUT.CHEM.  14, 1347-1363(1993)        *
          **************** 64 BIT LINUX VERSION ****************

  SINCE 1993, STUDENTS AND POSTDOCS WORKING AT IOWA STATE UNIVERSITY
  AND ALSO IN THEIR VARIOUS JOBS AFTER LEAVING ISU HAVE MADE IMPORTANT
  CONTRIBUTIONS TO THE CODE:
     IVANA ADAMOVIC, CHRISTINE AIKENS, YURI ALEXEEV, POOJA ARORA,
     ANDREY ASADCHEV, ROB BELL, PRADIPTA BANDYOPADHYAY, JONATHAN BENTZ,
     COLLEEN BERTONI, BRETT BODE, KURT BRORSEN, CALEB CARLIN, GALINA CHABAN,
     WEI CHEN, CHEOL HO CHOI, PAUL DAY, ALBERT DEFUSCO, NUWAN DESILVA,
     TIM DUDLEY, DMITRI FEDOROV, ALEX FINDLATER, GRAHAM FLETCHER, 
     MARK FREITAG, KURT GLAESEMANN, ANASTASIA GUNINA,
     DAN KEMP, GRANT MERRILL, NORIYUKI MINEZAWA, JONATHAN MULLIN,
     TAKESHI NAGATA, SEAN NEDD, HEATHER NETZLOFF, BOSILJKA NJEGIC, RYAN OLSON,
     MIKE PAK, BUU PHAM,
     SPENCER PRUITT, LUKE ROSKOP, JIM SHOEMAKER, LYUDMILA SLIPCHENKO,
     TONY SMITH, SAROM SOK LEANG, JIE SONG, TETSUYA TAKETSUGU, SIMON WEBB,
     PENG XU, SOOHAENG YOO, FEDERICO ZAHARIEV

  ADDITIONAL CODE HAS BEEN PROVIDED BY COLLABORATORS IN OTHER GROUPS:
     IOWA STATE UNIVERSITY:
          JOE IVANIC, AARON WEST, LAIMUTIS BYTAUTAS, KLAUS RUEDENBERG
     UNIVERSITY OF TOKYO: KIMIHIKO HIRAO, TAKAHITO NAKAJIMA,
          TAKAO TSUNEDA, MUNEAKI KAMIYA, SUSUMU YANAGISAWA,
          KIYOSHI YAGI, MAHITO CHIBA, SEIKEN TOKURA, NAOAKI KAWAKAMI
     UNIVERSITY OF AARHUS: FRANK JENSEN
     UNIVERSITY OF IOWA: VISVALDAS KAIRYS, HUI LI
     NATIONAL INST. OF STANDARDS AND TECHNOLOGY: WALT STEVENS, DAVID GARMER
     UNIVERSITY OF PISA: BENEDETTA MENNUCCI, JACOPO TOMASI
     UNIVERSITY OF MEMPHIS: HENRY KURTZ, PRAKASHAN KORAMBATH
     UNIVERSITY OF ALBERTA: TOBY ZENG, MARIUSZ KLOBUKOWSKI
     UNIVERSITY OF NEW ENGLAND: MARK SPACKMAN
     MIE UNIVERSITY: HIROAKI UMEDA
     NAT. INST. OF ADVANCED INDUSTRIAL SCIENCE AND TECHNOLOGY: KAZUO KITAURA
     MICHIGAN STATE UNIVERSITY:
          KAROL KOWALSKI, MARTA WLOCH, JEFFREY GOUR, JESSE LUTZ,
          WEI LI, JUN SHEN, J. EMILIANO DEUSTUA, PIOTR PIECUCH
     UNIVERSITY OF MINNESOTA:
          YINAN SHU
     UNIVERSITY OF SILESIA: MONIKA MUSIAL, STANISLAW KUCHARSKI
     FACULTES UNIVERSITAIRES NOTRE-DAME DE LA PAIX:
          OLIVIER QUINET, BENOIT CHAMPAGNE
     UNIVERSITY OF CALIFORNIA - SANTA BARBARA: BERNARD KIRTMAN
     INSTITUTE FOR MOLECULAR SCIENCE:
          KAZUYA ISHIMURA, MICHIO KATOUDA, AND SHIGERU NAGASE
     UNIVERSITY OF NOTRE DAME: ANNA POMOGAEVA, DAN CHIPMAN
     KYUSHU UNIVERSITY:
          HARUYUKI NAKANO,
          FENG LONG GU, JACEK KORCHOWIEC, MARCIN MAKOWSKI, AND YURIKO AOKI,
          HIROTOSHI MORI AND EISAKU MIYOSHI
     PENNSYLVANIA STATE UNIVERSITY:
          TZVETELIN IORDANOV, CHET SWALINA, JONATHAN SKONE,
          SHARON HAMMES-SCHIFFER
     WASEDA UNIVERSITY:
          MASATO KOBAYASHI, TOMOKO AKAMA, TSUGUKI TOUMA,
          TAKESHI YOSHIKAWA, YASUHIRO IKABATA, JUNJI SEINO,
          YUYA NAKAJIMA, HIROMI NAKAI
     NANJING UNIVERSITY: SHUHUA LI
     UNIVERSITY OF NEBRASKA:
          PEIFENG SU, DEJUN SI, NANDUN THELLAMUREGE, YALI WANG, HUI LI
     UNIVERSITY OF ZURICH: ROBERTO PEVERATI, KIM BALDRIDGE
     N. COPERNICUS UNIVERSITY AND JACKSON STATE UNIVERSITY:
          MARIA BARYSZ
     UNIVERSITY OF COPENHAGEN: Jimmy Kromann, CASPER STEINMANN
     TOKYO INSTITUTE OF TECHNOLOGY: HIROYA NAKATA
     NAGOYA UNIVERSITY: YOSHIO NISHIMOTO, STEPHAN IRLE
     MOSCOW STATE UNIVERSITY: VLADIMIR MIRONOV
     A.N.NESMEYANOV INSTITUTE OF ORGANOELEMENT COMPOUNDS OF RUSSIAN ACADEMY OF SCIENCES:
          IGOR S. GERASIMOV

 EXECUTION OF GAMESS BEGUN Mon Nov 15 06:18:04 2021

            ECHO OF THE FIRST FEW INPUT CARDS -
 INPUT CARD>!File created by the GAMESS Input Deck Generator Plugin for Avogadro            
 INPUT CARD> $BASIS GBASIS=STO NGAUSS=3 $END                                                
 INPUT CARD> $CONTRL SCFTYP=RHF RUNTYP=SADPOINT NZVAR=1 mult=1  ICHARG=0 $END               
 INPUT CARD> $STATPT hssend=.t. OPTTOL=0.0005 NSTEP=50 $END                                 
 INPUT CARD> $STATPT HESS=calc ihrep=5 $END                                                 
 INPUT CARD> $FORCE nvib=2 $END                                                             
 INPUT CARD> $ZMAT DLC=.t. auto=.t. nonvdw(1)=3,17,17,20,2,20,2,3 $END                      
 INPUT CARD>!$ZMAT IFZMAT(1)=1,3,17,1,17,20,1,2,20 fvalue(1)=2.08,1.98,2.01 $END            
 INPUT CARD>                                                                                
 INPUT CARD> $DATA                                                                          
 INPUT CARD>Title                                                                           
 INPUT CARD>C1                                                                              
 INPUT CARD>C     6.0     1.01478028    -0.07575989    -0.00664435                          
 INPUT CARD>C     6.0     2.53224230    -0.06815590     0.23046687                          
 INPUT CARD>C     6.0     3.34280515    -1.15653539    -0.16870545                          
 INPUT CARD>C     6.0     4.73845673    -0.69426841    -0.58223444                          
 INPUT CARD>C     6.0     4.80831051     0.76912707    -0.07553454                          
 INPUT CARD>C     6.0     3.33428884     1.23331153    -0.00497090                          
 INPUT CARD>H     1.0     0.57433861    -1.00022876     0.35376713                          
 INPUT CARD>H     1.0     0.83095551    -0.00166027    -1.07737768                          
 INPUT CARD>H     1.0     0.53345823     0.76083136     0.48898903                          
 INPUT CARD>H     1.0     2.91625381    -2.08139181    -0.52871192                          
 INPUT CARD>H     1.0     4.82420206    -0.72690624    -1.66915739                          
 INPUT CARD>H     1.0     5.53748465    -1.30914736    -0.17289123                          
 INPUT CARD>H     1.0     5.39987373     1.40325904    -0.73017323                          
 INPUT CARD>H     1.0     5.25309420     0.80056107     0.91525102                          
 INPUT CARD>H     1.0     3.01755595     1.62919652    -0.97049242                          
 INPUT CARD>H     1.0     3.16008973     1.99680758     0.74712092                          
 INPUT CARD>B     5.0     3.14498186    -1.21825254     1.90094590                          
 INPUT CARD>H     1.0     4.19167137    -1.00445843     2.33201241                          
 INPUT CARD>H     1.0     2.39610386    -2.06459689     2.12796283                          
 INPUT CARD>H     1.0     2.14575458     0.47618920     2.12636137                          
 INPUT CARD> $END                                                                           
    1000000 WORDS OF MEMORY AVAILABLE

     BASIS OPTIONS
     -------------
     GBASIS=STO          IGAUSS=       3      POLAR=NONE    
     NDFUNC=       0     NFFUNC=       0     DIFFSP=       F
     NPFUNC=       0      DIFFS=       F     BASNAM=        


     RUN TITLE
     ---------
 Title                                                                           

 THE POINT GROUP OF THE MOLECULE IS C1      
 THE ORDER OF THE PRINCIPAL AXIS IS     0

 ATOM      ATOMIC                      COORDINATES (BOHR)
           CHARGE         X                   Y                   Z
 C           6.0     1.9176566669       -0.1431654330       -0.0125560009
 C           6.0     4.7852440815       -0.1287959754        0.4355192335
 C           6.0     6.3169857638       -2.1855349822       -0.3188070731
 C           6.0     8.9543848244       -1.3119770568       -1.1002635522
 C           6.0     9.0863893278        1.4534394120       -0.1427395832
 C           6.0     6.3008922715        2.3306208492       -0.0093936389
 H           1.0     1.0853425971       -1.8901582814        0.6685229392
 H           1.0     1.5702782219       -0.0031374554       -2.0359486005
 H           1.0     1.0080898806        1.4377627933        0.9240552777
 H           1.0     5.5109206115       -3.9332601940       -0.9991206552
 H           1.0     9.1164200028       -1.3736536124       -3.1542500975
 H           1.0    10.4643286497       -2.4739297879       -0.3267170504
 H           1.0    10.2042817180        2.6517750754       -1.3798273283
 H           1.0     9.9269086257        1.5128410587        1.7295736378
 H           1.0     5.7023538981        3.0787350030       -1.8339647470
 H           1.0     5.9717036863        3.7734191764        1.4118538185
 B           5.0     5.9431539518       -2.3021634844        3.5922668685
 H           1.0     7.9211103199       -1.8981511988        4.4068644549
 H           1.0     4.5279797335       -3.9015223972        4.0212666608
 H           1.0     4.0548881931        0.8998671063        4.0182403402

          INTERNUCLEAR DISTANCES (ANGS.)
          ------------------------------

                1 C          2 C          3 C          4 C          5 C     

   1 C       0.0000000    1.5358941 *  2.5717775 *  3.8183273    3.8870878  
   2 C       1.5358941 *  0.0000000    1.4145390 *  2.4330808 *  2.4444153 *
   3 C       2.5717775 *  1.4145390 *  0.0000000    1.5272656 *  2.4216859 *
   4 C       3.8183273    2.4330808 *  1.5272656 *  0.0000000    1.5502099 *
   5 C       3.8870878    2.4444153 *  2.4216859 *  1.5502099 *  0.0000000  
   6 C       2.6634171 *  1.5467796 *  2.3954644 *  2.4536677 *  1.5469927 *
   7 H       1.0856003 *  2.1719460 *  2.8216691 *  4.2789707    4.6088435  
   8 H       1.0889225 *  2.1469177 *  2.9101221 *  3.9991797    4.1733866  
   9 H       1.0849923 *  2.1792639 *  3.4642874    4.5767726    4.3119738  
  10 H       2.8125994 *  2.1856203 *  1.0802361 *  2.2907203 *  3.4511891  
  11 H       4.2070935    3.0488693    2.1518536 *  1.0907882 *  2.1858641 *
  12 H       4.6908142    3.2763149    2.1999832 *  1.0881561 *  2.2046310 *
  13 H       4.6840192    3.3632129    3.3315649    2.2043094 *  1.0865644 *
  14 H       4.4250576    2.9371131 *  2.9418349 *  2.1775742 *  1.0864974 *
  15 H       2.8012479 *  2.1351435 *  2.9170107 *  2.9173161 *  2.1788692 *
  16 H       3.0766948    2.2192787 *  3.2887224    3.3912119    2.2137283 *
  17 B       3.0792773    2.1186487 *  2.0799999 *  2.9966492 *  3.2592660  
  18 H       4.0527069    2.8366989 *  2.6452393 *  2.9812794 *  3.0532166  
  19 H       3.2280141    2.7576804 *  2.6449015 *  3.8353079    4.3248275  
  20 H       2.4765831 *  2.0100001 *  3.0604005    3.9279214    3.4674720  

                6 C          7 H          8 H          9 H         10 H     

   1 C       2.6634171 *  1.0856003 *  1.0889225 *  1.0849923 *  2.8125994 *
   2 C       1.5467796 *  2.1719460 *  2.1469177 *  2.1792639 *  2.1856203 *
   3 C       2.3954644 *  2.8216691 *  2.9101221 *  3.4642874    1.0802361 *
   4 C       2.4536677 *  4.2789707    3.9991797    4.5767726    2.2907203 *
   5 C       1.5469927 *  4.6088435    4.1733866    4.3119738    3.4511891  
   6 C       0.0000000    3.5685740    2.9902992 *  2.8830342 *  3.3817623  
   7 H       3.5685740    0.0000000    1.7638500 *  1.7667170 *  2.7262153 *
   8 H       2.9902992 *  1.7638500 *  0.0000000    1.7673151 *  2.9957948 *
   9 H       2.8830342 *  1.7667170 *  1.7673151 *  0.0000000    3.8459931  
  10 H       3.3817623    2.7262153 *  2.9957948 *  3.8459931    0.0000000  
  11 H       2.9718364 *  4.7146864    4.1014879    5.0280654    2.6029817 *
  12 H       3.3684368    5.0005618    4.9677998    5.4555639    2.7556888 *
  13 H       2.1957781 *  5.4988607    4.7926363    5.0577732    4.2838938  
  14 H       2.1716112 *  5.0446865    4.9162423    4.7390127    3.9813948  
  15 H       1.0905395 *  3.8258139    2.7298974 *  3.0091337    3.7381677  
  16 H       1.0857779 *  3.9778214    3.5703690    2.9143545 *  4.2800602  
  17 B       3.1110324    3.0082392    3.9629820    3.5679758    2.5885446 *
  18 H       3.3472691    4.1229320    4.8912121    4.4604379    3.3121321  
  19 H       4.0380437    2.7567152 *  4.1206316    3.7601501    2.7071680 *
  20 H       2.5550783 *  2.7912808 *  3.4958519    2.3154932 *  3.7662055  

               11 H         12 H         13 H         14 H         15 H     

   1 C       4.2070935    4.6908142    4.6840192    4.4250576    2.8012479 *
   2 C       3.0488693    3.2763149    3.3632129    2.9371131 *  2.1351435 *
   3 C       2.1518536 *  2.1999832 *  3.3315649    2.9418349 *  2.9170107 *
   4 C       1.0907882 *  1.0881561 *  2.2043094 *  2.1775742 *  2.9173161 *
   5 C       2.1858641 *  2.2046310 *  1.0865644 *  1.0864974 *  2.1788692 *
   6 C       2.9718364 *  3.3684368    2.1957781 *  2.1716112 *  1.0905395 *
   7 H       4.7146864    5.0005618    5.4988607    5.0446865    3.8258139  
   8 H       4.1014879    4.9677998    4.7926363    4.9162423    2.7298974 *
   9 H       5.0280654    5.4555639    5.0577732    4.7390127    3.0091337  
  10 H       2.6029817 *  2.7556888 *  4.2838938    3.9813948    3.7381677  
  11 H       0.0000000    1.7568691 *  2.3980603 *  3.0325355    3.0501349  
  12 H       1.7568691 *  0.0000000    2.7724806 *  2.3907742 *  3.9522238  
  13 H       2.3980603 *  2.7724806 *  0.0000000    1.7584681 *  2.4050445 *
  14 H       3.0325355    2.3907742 *  1.7584681 *  0.0000000    3.0397856  
  15 H       3.0501349    3.9522238    2.4050445 *  3.0397856    0.0000000  
  16 H       4.0032846    4.1746577    2.7479684 *  2.4165970 *  1.7622853 *
  17 B       3.9757816    3.1675119    4.3450717    3.0808019    4.0459068  
  18 H       4.0603559    2.8598236 *  4.0784602    2.5282260 *  4.3842016  
  19 H       4.7014040    3.9664728    5.4053307    4.2240021    4.8611457  
  20 H       4.7986959    4.4696557    4.4281531    3.3507559    3.4175967  

               16 H         17 B         18 H         19 H         20 H     

   1 C       3.0766948    3.0792773    4.0527069    3.2280141    2.4765831 *
   2 C       2.2192787 *  2.1186487 *  2.8366989 *  2.7576804 *  2.0100001 *
   3 C       3.2887224    2.0799999 *  2.6452393 *  2.6449015 *  3.0604005  
   4 C       3.3912119    2.9966492 *  2.9812794 *  3.8353079    3.9279214  
   5 C       2.2137283 *  3.2592660    3.0532166    4.3248275    3.4674720  
   6 C       1.0857779 *  3.1110324    3.3472691    4.0380437    2.5550783 *
   7 H       3.9778214    3.0082392    4.1229320    2.7567152 *  2.7912808 *
   8 H       3.5703690    3.9629820    4.8912121    4.1206316    3.4958519  
   9 H       2.9143545 *  3.5679758    4.4604379    3.7601501    2.3154932 *
  10 H       4.2800602    2.5885446 *  3.3121321    2.7071680 *  3.7662055  
  11 H       4.0032846    3.9757816    4.0603559    4.7014040    4.7986959  
  12 H       4.1746577    3.1675119    2.8598236 *  3.9664728    4.4696557  
  13 H       2.7479684 *  4.3450717    4.0784602    5.4053307    4.4281531  
  14 H       2.4165970 *  3.0808019    2.5282260 *  4.2240021    3.3507559  
  15 H       1.7622853 *  4.0459068    4.3842016    4.8611457    3.4175967  
  16 H       0.0000000    3.4158677    3.5473426    4.3572245    2.2898603 *
  17 B       3.4158677    0.0000000    1.1519918 *  1.1526724 *  1.9800000 *
  18 H       3.5473426    1.1519918 *  0.0000000    2.0951354 *  2.5338479 *
  19 H       4.3572245    1.1526724 *  2.0951354 *  0.0000000    2.5530905 *
  20 H       2.2898603 *  1.9800000 *  2.5338479 *  2.5530905 *  0.0000000  

  * ... LESS THAN  3.000


     ATOMIC BASIS SET
     ----------------
 THE CONTRACTED PRIMITIVE FUNCTIONS HAVE BEEN UNNORMALIZED
 THE CONTRACTED BASIS FUNCTIONS ARE NOW NORMALIZED TO UNITY

  SHELL TYPE  PRIMITIVE        EXPONENT          CONTRACTION COEFFICIENT(S)

 C         

      1   S       1            71.6168373    0.154328967295
      1   S       2            13.0450963    0.535328142282
      1   S       3             3.5305122    0.444634542185

      2   L       4             2.9412494   -0.099967229187    0.155916274999
      2   L       5             0.6834831    0.399512826089    0.607683718598
      2   L       6             0.2222899    0.700115468880    0.391957393099

 C         

      3   S       7            71.6168373    0.154328967295
      3   S       8            13.0450963    0.535328142282
      3   S       9             3.5305122    0.444634542185

      4   L      10             2.9412494   -0.099967229187    0.155916274999
      4   L      11             0.6834831    0.399512826089    0.607683718598
      4   L      12             0.2222899    0.700115468880    0.391957393099

 C         

      5   S      13            71.6168373    0.154328967295
      5   S      14            13.0450963    0.535328142282
      5   S      15             3.5305122    0.444634542185

      6   L      16             2.9412494   -0.099967229187    0.155916274999
      6   L      17             0.6834831    0.399512826089    0.607683718598
      6   L      18             0.2222899    0.700115468880    0.391957393099

 C         

      7   S      19            71.6168373    0.154328967295
      7   S      20            13.0450963    0.535328142282
      7   S      21             3.5305122    0.444634542185

      8   L      22             2.9412494   -0.099967229187    0.155916274999
      8   L      23             0.6834831    0.399512826089    0.607683718598
      8   L      24             0.2222899    0.700115468880    0.391957393099

 C         

      9   S      25            71.6168373    0.154328967295
      9   S      26            13.0450963    0.535328142282
      9   S      27             3.5305122    0.444634542185

     10   L      28             2.9412494   -0.099967229187    0.155916274999
     10   L      29             0.6834831    0.399512826089    0.607683718598
     10   L      30             0.2222899    0.700115468880    0.391957393099

 C         

     11   S      31            71.6168373    0.154328967295
     11   S      32            13.0450963    0.535328142282
     11   S      33             3.5305122    0.444634542185

     12   L      34             2.9412494   -0.099967229187    0.155916274999
     12   L      35             0.6834831    0.399512826089    0.607683718598
     12   L      36             0.2222899    0.700115468880    0.391957393099

 H         

     13   S      37             3.4252509    0.154328967295
     13   S      38             0.6239137    0.535328142282
     13   S      39             0.1688554    0.444634542185

 H         

     14   S      40             3.4252509    0.154328967295
     14   S      41             0.6239137    0.535328142282
     14   S      42             0.1688554    0.444634542185

 H         

     15   S      43             3.4252509    0.154328967295
     15   S      44             0.6239137    0.535328142282
     15   S      45             0.1688554    0.444634542185

 H         

     16   S      46             3.4252509    0.154328967295
     16   S      47             0.6239137    0.535328142282
     16   S      48             0.1688554    0.444634542185

 H         

     17   S      49             3.4252509    0.154328967295
     17   S      50             0.6239137    0.535328142282
     17   S      51             0.1688554    0.444634542185

 H         

     18   S      52             3.4252509    0.154328967295
     18   S      53             0.6239137    0.535328142282
     18   S      54             0.1688554    0.444634542185

 H         

     19   S      55             3.4252509    0.154328967295
     19   S      56             0.6239137    0.535328142282
     19   S      57             0.1688554    0.444634542185

 H         

     20   S      58             3.4252509    0.154328967295
     20   S      59             0.6239137    0.535328142282
     20   S      60             0.1688554    0.444634542185

 H         

     21   S      61             3.4252509    0.154328967295
     21   S      62             0.6239137    0.535328142282
     21   S      63             0.1688554    0.444634542185

 H         

     22   S      64             3.4252509    0.154328967295
     22   S      65             0.6239137    0.535328142282
     22   S      66             0.1688554    0.444634542185

 B         

     23   S      67            48.7911132    0.154328967295
     23   S      68             8.8873622    0.535328142282
     23   S      69             2.4052670    0.444634542185

     24   L      70             2.2369561   -0.099967229187    0.155916274999
     24   L      71             0.5198205    0.399512826089    0.607683718598
     24   L      72             0.1690618    0.700115468880    0.391957393099

 H         

     25   S      73             3.4252509    0.154328967295
     25   S      74             0.6239137    0.535328142282
     25   S      75             0.1688554    0.444634542185

 H         

     26   S      76             3.4252509    0.154328967295
     26   S      77             0.6239137    0.535328142282
     26   S      78             0.1688554    0.444634542185

 H         

     27   S      79             3.4252509    0.154328967295
     27   S      80             0.6239137    0.535328142282
     27   S      81             0.1688554    0.444634542185

 TOTAL NUMBER OF BASIS SET SHELLS             =   27
 NUMBER OF CARTESIAN GAUSSIAN BASIS FUNCTIONS =   48
 NUMBER OF ELECTRONS                          =   54
 CHARGE OF MOLECULE                           =    0
 SPIN MULTIPLICITY                            =    1
 NUMBER OF OCCUPIED ORBITALS (ALPHA)          =   27
 NUMBER OF OCCUPIED ORBITALS (BETA )          =   27
 TOTAL NUMBER OF ATOMS                        =   20
 THE NUCLEAR REPULSION ENERGY IS      304.1671377538

     $CONTRL OPTIONS
     ---------------
 SCFTYP=RHF          RUNTYP=SADPOINT     EXETYP=RUN     
 MPLEVL=       0     CITYP =NONE         CCTYP =NONE         VBTYP =NONE    
 DFTTYP=NONE         TDDFT =NONE    
 MULT  =       1     ICHARG=       0     NZVAR =       1     COORD =UNIQUE  
 PP    =NONE         RELWFN=NONE         LOCAL =NONE         NUMGRD=       F
 ISPHER=      -1     NOSYM =       0     MAXIT =      30     UNITS =ANGS    
 PLTORB=       F     MOLPLT=       F     AIMPAC=       F     FRIEND=        
 NPRINT=       7     IREST =       0     GEOM  =INPUT   
 NORMF =       0     NORMP =       0     ITOL  =      20     ICUT  =       9
 INTTYP=BEST         GRDTYP=BEST         QMTTOL= 1.0E-06

     $SYSTEM OPTIONS
     ---------------
  REPLICATED MEMORY=     1000000 WORDS (ON EVERY NODE).
 DISTRIBUTED MEMDDI=           0 MILLION WORDS IN AGGREGATE,
 MEMDDI DISTRIBUTED OVER   1 PROCESSORS IS           0 WORDS/PROCESSOR.
 TOTAL MEMORY REQUESTED ON EACH PROCESSOR=     1000000 WORDS.
 TIMLIM=      525600.00 MINUTES, OR     365.0 DAYS.
 PARALL= F  BALTYP=  DLB     KDIAG=    0  COREFL= F
 MXSEQ2=     300 MXSEQ3=     150  mem10=         0

          ----------------
          PROPERTIES INPUT
          ----------------

     MOMENTS            FIELD           POTENTIAL          DENSITY
 IEMOM =       1   IEFLD =       0   IEPOT =       0   IEDEN =       0
 WHERE =COMASS     WHERE =NUCLEI     WHERE =NUCLEI     WHERE =NUCLEI  
 OUTPUT=BOTH       OUTPUT=BOTH       OUTPUT=BOTH       OUTPUT=BOTH    
 IEMINT=       0   IEFINT=       0                     IEDINT=       0
                                                       MORB  =       0
          EXTRAPOLATION IN EFFECT
          SOSCF IN EFFECT
 ORBITAL PRINTING OPTION: NPREO=     1    48     2     1

     -------------------------------
     INTEGRAL TRANSFORMATION OPTIONS
     -------------------------------
     NWORD  =            0
     CUTOFF = 1.0E-09     MPTRAN =       0
     DIRTRF =       F     AOINTS =DUP     

          ----------------------
          INTEGRAL INPUT OPTIONS
          ----------------------
 NOPK  =       1 NORDER=       0 SCHWRZ=       T


 -----------------------------------------------
  STATISTICS ON AUTOMATIC COORDINATE GENERATION 
 -----------------------------------------------
  NUMBER OF USER SPECIFIED BONDS                             4
  NUMBER OF BONDS                                           22
  NUMBER OF ANGLES                                          49
  NUMBER OF TORSIONS                                        69
  NUMBER OF EXTRA COORD.                                     0
  NUMBER OF EXTRA COORD. FOR CONSTRAINTS                     0
  NUMBER OF CONSTRAINED COORD.                               0

  TOTAL NUMBER OF PRIMITIVES                               140
 -----------------------------------------------

   --- ENCODED Z MATRIX ---
 COORD  TYPE   I   J   K   L   M   N
    1      1    1   2
    2      1    1   7
    3      1    1   9
    4      1    1   8
    5      1    2   3
    6      1    2   3
    7      1    2   6
    8      1    2  20
    9      1    3   4
   10      1    3  10
   11      1    3  17
   12      1    4  12
   13      1    4  11
   14      1    4   5
   15      1    5  14
   16      1    5  13
   17      1    5   6
   18      1    6  15
   19      1    6  16
   20      1   17  20
   21      1   17  19
   22      1   17  18
   23      2    1   2   6
   24      2    1   2   3
   25      2    1   2  20
   26      2    1   2   3
   27      2    2   6  16
   28      2    2   3   4
   29      2    2   3  10
   30      2    2   3  17
   31      2    2   1   7
   32      2    2  20  17
   33      2    2   1   8
   34      2    2   6   5
   35      2    2   1   9
   36      2    2   3  10
   37      2    2   3  17
   38      2    2   3   4
   39      2    2   6  15
   40      2    3   4   5
   41      2    3   4  11
   42      2    3   4  12
   43      2    3   2  20
   44      2    3   2   6
   45      2    3   2  20
   46      2    3  17  18
   47      2    3  17  19
   48      2    3  17  20
   49      2    3   2   6
   50      2    4   3  17
   51      2    4   3  10
   52      2    4   5  13
   53      2    4   5   6
   54      2    4   5  14
   55      2    5   6  16
   56      2    5   6  15
   57      2    5   4  11
   58      2    5   4  12
   59      2    6   5  13
   60      2    6   5  14
   61      2    6   2  20
   62      2    7   1   8
   63      2    7   1   9
   64      2    8   1   9
   65      2   10   3  17
   66      2   11   4  12
   67      2   13   5  14
   68      2   15   6  16
   69      2   18  17  19
   70      2   18  17  20
   71      2   19  17  20
   72      3    1   2   6  16
   73      3    1   2   3  17
   74      3    1   2   3  10
   75      3    1   2   3   4
   76      3    1   2   6  15
   77      3    1   2   6   5
   78      3    1   2  20  17
   79      3    2   3   4  11
   80      3    2   6   5  14
   81      3    2   6   5   4
   82      3    2   3   4  12
   83      3    2  20  17  18
   84      3    2   6   5  13
   85      3    2  20  17  19
   86      3    2  20  17   3
   87      3    2   3  17  18
   88      3    2   3  17  19
   89      3    2   3  17  20
   90      3    2   3   4   5
   91      3    3   2   1   7
   92      3    3   2   6   5
   93      3    3   2   6  16
   94      3    3   2  20  17
   95      3    3   4   5   6
   96      3    3   4   5  13
   97      3    3   4   5  14
   98      3    3   2   6  15
   99      3    3   2   1   8
  100      3    3   2   1   9
  101      3    4   3  17  20
  102      3    4   3  17  19
  103      3    4   3  17  18
  104      3    4   3   2  20
  105      3    4   3   2   6
  106      3    4   5   6  16
  107      3    4   5   6  15
  108      3    5   6   2  20
  109      3    5   4   3  17
  110      3    5   4   3  10
  111      3    6   2  20  17
  112      3    6   2   1   8
  113      3    6   2   1   7
  114      3    6   2   1   9
  115      3    6   5   4  11
  116      3    6   5   4  12
  117      3    6   2   3  17
  118      3    6   2   3  10
  119      3    7   1   2  20
  120      3    8   1   2  20
  121      3    9   1   2  20
  122      3   10   3  17  19
  123      3   10   3  17  18
  124      3   10   3   4  12
  125      3   10   3   4  11
  126      3   10   3   2  20
  127      3   10   3  17  20
  128      3   11   4   3  17
  129      3   11   4   5  14
  130      3   11   4   5  13
  131      3   12   4   3  17
  132      3   12   4   5  14
  133      3   12   4   5  13
  134      3   13   5   6  15
  135      3   13   5   6  16
  136      3   14   5   6  15
  137      3   14   5   6  16
  138      3   15   6   2  20
  139      3   16   6   2  20
  140      3   17   3   2  20

          INDEP./SYM. INTERNAL COORDINATES
          --------------------------------
 CRD  1=   0.2351 (  7) -0.1021 (  9)  0.1043 ( 17)  0.3978 ( 23) -0.3099 ( 24)
          -0.3099 ( 26) -0.2456 ( 31)  0.2345 ( 35)  0.1227 ( 73)  0.1533 ( 74)
           0.1883 ( 75) -0.3066 ( 78)  0.1104 (109)  0.1079 (112)
 CRD  2=   0.2069 (  7)  0.2064 (  9) -0.2373 ( 25) -0.1019 ( 31)  0.1140 ( 33)
           0.1421 ( 34) -0.1186 ( 44)  0.1255 ( 46) -0.1186 ( 49)  0.2713 ( 50)
           0.2128 ( 61) -0.1467 ( 65)  0.3042 ( 73) -0.1604 ( 78)  0.1563 ( 83)
           0.1004 ( 85) -0.1013 (101) -0.2120 (104)  0.1360 (108) -0.1050 (111)
           0.2774 (117) -0.1555 (126)
 CRD  3=   0.5779 (  1)  0.1386 (  5)  0.1386 (  6)  0.1541 (  7)  0.1670 (  9)
          -0.1020 ( 11)  0.1381 ( 24)  0.1381 ( 26)  0.1344 ( 31)  0.3311 ( 33)
          -0.1319 ( 44) -0.1319 ( 49) -0.1783 ( 62) -0.1272 ( 63) -0.1560 ( 64)
           0.1416 ( 75) -0.1083 ( 76) -0.1663 ( 77)  0.1208 (104)  0.1467 (111)
 CRD  4=   0.3498 (  1)  0.2086 (  7)  0.2500 ( 11)  0.1487 ( 25)  0.2086 ( 31)
           0.1109 ( 32) -0.2040 ( 33)  0.2698 ( 35)  0.1376 ( 40) -0.1060 ( 41)
          -0.1314 ( 48) -0.1246 ( 53)  0.1152 ( 60) -0.1591 ( 63) -0.1186 ( 69)
           0.1307 ( 72) -0.1074 ( 73) -0.2045 ( 75)  0.1182 ( 76)  0.2136 ( 77)
           0.1041 ( 82) -0.1140 (105) -0.1498 (113)  0.1009 (121)
 CRD  5=  -0.3154 (  7)  0.2624 (  9)  0.2390 ( 11)  0.1191 ( 13) -0.1727 ( 20)
          -0.1839 ( 27) -0.1414 ( 30)  0.1034 ( 34) -0.1414 ( 37) -0.1836 ( 40)
           0.1748 ( 42)  0.1096 ( 43)  0.1096 ( 45)  0.1057 ( 47) -0.1021 ( 51)
          -0.1143 ( 54)  0.1337 ( 57) -0.1058 ( 61) -0.1074 ( 70) -0.1010 ( 71)
           0.1104 ( 90)  0.1060 ( 92) -0.1413 (105)  0.1706 (108)  0.2133 (109)
          -0.1056 (120)  0.1429 (128)  0.1157 (131)  0.1202 (138)
 CRD  6=  -0.1646 (  7) -0.4853 ( 11)  0.1056 ( 17) -0.1021 ( 18)  0.1940 ( 31)
          -0.1691 ( 32) -0.3044 ( 33)  0.1902 ( 34)  0.1124 ( 35) -0.1614 ( 39)
          -0.1405 ( 41) -0.1953 ( 46) -0.1745 ( 47)  0.1807 ( 48) -0.2045 ( 53)
          -0.1193 ( 63)  0.2137 ( 69) -0.1407 ( 83)  0.1315 ( 85)
 CRD  7=   0.1199 (  1)  0.1067 (  3)  0.1206 (  5)  0.1206 (  6) -0.1530 (  7)
           0.3291 (  9)  0.1775 ( 12)  0.2026 ( 14) -0.2048 ( 31) -0.1315 ( 33)
           0.4362 ( 35) -0.2498 ( 40)  0.1256 ( 41)  0.1199 ( 42)  0.1892 ( 53)
           0.1223 ( 58) -0.1451 ( 60)  0.1144 ( 62) -0.1209 ( 64) -0.1279 ( 66)
          -0.1221 ( 87) -0.1159 (109) -0.1352 (111)
 CRD  8=   0.1604 (  5)  0.1604 (  6)  0.1629 (  7) -0.2125 (  9) -0.2813 ( 14)
          -0.1017 ( 15)  0.1330 ( 17)  0.1325 ( 19)  0.1329 ( 27)  0.1591 ( 31)
          -0.2437 ( 33) -0.2608 ( 34)  0.1016 ( 46) -0.1748 ( 47)  0.1076 ( 48)
          -0.1511 ( 51) -0.1764 ( 52)  0.2717 ( 53) -0.1646 ( 54)  0.1228 ( 55)
          -0.1027 ( 63)  0.1171 ( 67) -0.1099 ( 68)  0.1079 ( 83)  0.1267 ( 85)
           0.1138 (102)  0.1173 (103)  0.1142 (108)
 CRD  9=   0.1363 (  2) -0.1108 (  3)  0.3287 (  7)  0.1237 (  9)  0.1090 ( 12)
           0.4685 ( 14)  0.1549 ( 19)  0.3908 ( 31) -0.3241 ( 35) -0.1335 ( 62)
           0.1658 ( 64) -0.1067 (136)
 CRD 10=  -0.1143 (  7) -0.1659 (  9)  0.2499 ( 14)  0.1289 ( 16)  0.5235 ( 17)
           0.1121 ( 19) -0.1152 ( 23) -0.2272 ( 31)  0.2648 ( 33) -0.1142 ( 39)
          -0.1209 ( 41) -0.1289 ( 53)  0.1472 ( 55)  0.1297 ( 56)  0.1145 ( 59)
          -0.1273 ( 64)  0.1069 ( 98) -0.1023 (106)  0.1016 (132)
 CRD 11=   0.1222 (  1) -0.2192 (  9) -0.1587 ( 11)  0.1910 ( 14) -0.3995 ( 17)
          -0.1190 ( 18) -0.1629 ( 31)  0.2384 ( 33) -0.1996 ( 41) -0.1799 ( 47)
           0.1838 ( 52) -0.1438 ( 56)  0.1796 ( 57) -0.2506 ( 59) -0.1359 ( 64)
           0.1544 ( 85)  0.1006 ( 92)  0.1746 ( 96) -0.1188 (105) -0.1101 (107)
          -0.1577 (115) -0.1233 (129)  0.1133 (133)
 CRD 12=   0.1088 (  4)  0.1852 (  9) -0.1838 ( 11) -0.1158 ( 13) -0.2736 ( 14)
           0.1375 ( 17)  0.1354 ( 19) -0.1022 ( 22)  0.2088 ( 33) -0.1679 ( 35)
           0.2144 ( 42) -0.2483 ( 46)  0.1124 ( 51)  0.1002 ( 53) -0.2003 ( 54)
           0.1001 ( 55) -0.2063 ( 58)  0.1507 ( 60)  0.1293 ( 63)  0.1162 ( 77)
          -0.1036 ( 82) -0.2159 ( 83)  0.1080 ( 92)  0.1664 ( 97) -0.1253 (103)
          -0.1357 (116) -0.1043 (124)  0.1013 (129) -0.1319 (131) -0.1051 (133)
 CRD 13=  -0.1492 (  1)  0.1213 (  3)  0.1377 (  5)  0.1377 (  6)  0.2416 (  7)
           0.2128 ( 10)  0.1100 ( 14)  0.1058 ( 21) -0.1438 ( 22)  0.1052 ( 24)
           0.1052 ( 26)  0.1189 ( 29) -0.2422 ( 31) -0.1247 ( 33)  0.1976 ( 35)
           0.1189 ( 36) -0.2188 ( 46)  0.2798 ( 47)  0.1831 ( 62)  0.1308 ( 78)
          -0.2604 ( 83) -0.3401 ( 85)  0.1353 ( 87)
 CRD 14=  -0.1166 (  3)  0.1052 (  4)  0.1413 (  8) -0.1280 ( 17) -0.2116 ( 18)
          -0.2123 ( 20)  0.2463 ( 27)  0.1691 ( 33) -0.1132 ( 35) -0.2542 ( 39)
           0.1007 ( 47) -0.1855 ( 52)  0.1768 ( 54) -0.1468 ( 55)  0.1031 ( 59)
          -0.1985 ( 60) -0.1173 ( 62) -0.1215 ( 71)  0.1409 ( 72)  0.1141 ( 76)
           0.1160 ( 77) -0.2383 ( 80) -0.2244 ( 84) -0.1010 ( 85) -0.1029 ( 90)
           0.1199 ( 95)  0.1316 (106)  0.1505 (107) -0.1098 (112) -0.1294 (113)
          -0.1096 (114)
 CRD 15=   0.1085 (  7)  0.2234 (  9)  0.5521 ( 10)  0.1067 ( 19) -0.1491 ( 21)
           0.1034 ( 22) -0.1262 ( 28) -0.1262 ( 38)  0.2486 ( 46) -0.2297 ( 47)
          -0.1131 ( 50)  0.1263 ( 51) -0.1162 ( 58) -0.1313 ( 70)  0.2084 ( 83)
           0.1898 ( 85)  0.1168 ( 87)  0.1034 (123)
 CRD 16=  -0.1062 (  8)  0.2598 ( 13)  0.3481 ( 15) -0.2865 ( 16)  0.1747 ( 19)
           0.2023 ( 20)  0.1306 ( 21)  0.1382 ( 27) -0.1106 ( 39) -0.1649 ( 52)
           0.1683 ( 54) -0.1143 ( 80) -0.1046 ( 84)  0.1050 ( 90)  0.1637 ( 91)
          -0.1129 ( 95)  0.1609 ( 99)  0.1671 (100)  0.1078 (102)  0.2120 (106)
           0.1982 (107)  0.1394 (112)  0.1422 (113)  0.1456 (114) -0.1062 (115)
          -0.1265 (116)  0.1176 (119)  0.1149 (120)  0.1211 (121)
 CRD 17=  -0.3832 ( 15)  0.2798 ( 16) -0.3001 ( 18)  0.1630 ( 19)  0.1055 ( 20)
           0.1465 ( 21)  0.1312 ( 41) -0.1864 ( 42)  0.1077 ( 58)  0.1452 ( 59)
          -0.1617 ( 60)  0.1336 ( 91) -0.1163 ( 96) -0.1259 ( 97)  0.1354 ( 99)
           0.1374 (100) -0.1496 (106) -0.1085 (107)  0.1085 (108)  0.1562 (112)
           0.1544 (113)  0.1581 (114)  0.1902 (115)  0.2181 (116)  0.1013 (120)
           0.1032 (121)
 CRD 18=  -0.1867 (  4) -0.3386 (  8) -0.2444 (  9) -0.2286 ( 13)  0.1321 ( 31)
           0.1369 ( 35) -0.1028 ( 39) -0.1166 ( 41)  0.1431 ( 47)  0.1998 ( 56)
          -0.1093 ( 61) -0.1654 ( 63)  0.1136 ( 74)  0.1150 ( 75) -0.1018 ( 78)
          -0.1075 ( 94)  0.1369 ( 98) -0.1361 (101) -0.1599 (102)  0.1172 (104)
          -0.1205 (111)  0.1346 (112)  0.1424 (113)  0.1164 (114) -0.1492 (122)
           0.1159 (126) -0.1254 (127)  0.1599 (138)  0.1000 (139)
 CRD 19=  -0.2720 (  2) -0.2763 (  3) -0.2250 (  4)  0.1459 (  8) -0.3893 ( 12)
           0.3111 ( 13) -0.1354 ( 20) -0.1348 ( 22)  0.1042 ( 31)  0.1384 ( 33)
           0.1389 ( 35)  0.1060 ( 57) -0.1289 ( 58)  0.1076 ( 59) -0.1216 ( 62)
          -0.1237 ( 63) -0.1466 ( 64) -0.1067 ( 74) -0.1617 ( 96) -0.1452 ( 97)
          -0.1160 (101)  0.1134 (110)
 CRD 20=  -0.1295 (  1) -0.3865 (  2) -0.3589 (  3) -0.2972 (  4)  0.1690 (  8)
           0.1412 ( 10)  0.2632 ( 12) -0.2042 ( 13)  0.1563 ( 33)  0.1088 ( 35)
          -0.1684 ( 57)  0.1605 ( 58) -0.1018 ( 59) -0.1316 ( 62) -0.1019 ( 63)
          -0.1388 ( 64)  0.1410 ( 79)  0.1334 ( 82)  0.1644 (128)  0.1568 (131)
 CRD 21=   0.2679 (  4)  0.3380 (  8)  0.2911 ( 18) -0.2753 ( 19) -0.1692 ( 20)
          -0.2161 ( 22)  0.1343 ( 48)  0.1065 ( 52) -0.1595 ( 55)  0.1817 ( 56)
          -0.1789 ( 70)  0.1836 ( 72)  0.1986 ( 76)  0.1098 ( 80)  0.1232 ( 84)
           0.1490 ( 93)  0.1640 ( 98) -0.1054 (108)  0.1154 (119)  0.1313 (120)
           0.1357 (121) -0.1007 (127)
 CRD 22=   0.1548 (  1)  0.1516 (  2)  0.2073 (  3)  0.1546 (  4)  0.1735 (  8)
          -0.1268 (  9)  0.2542 ( 10) -0.1106 ( 12) -0.1367 ( 13) -0.1401 ( 16)
           0.1795 ( 19) -0.2473 ( 21) -0.2287 ( 22)  0.1138 ( 48)  0.1826 ( 55)
          -0.1340 ( 56) -0.1179 ( 57) -0.1221 ( 72) -0.1164 ( 76) -0.1780 ( 93)
          -0.1724 ( 98) -0.1118 (101) -0.1557 (102) -0.1145 (103) -0.1383 (122)
           0.1529 (128)  0.1341 (131) -0.1711 (138) -0.1768 (139)
 CRD 23=   0.1281 (  8)  0.1516 ( 10)  0.5779 ( 21)  0.6128 ( 22) -0.1214 ( 46)
           0.2408 ( 69) -0.1074 ( 83)  0.1137 ( 85) -0.1116 ( 88) -0.1399 (102)
          -0.1442 (122)
 CRD 24=  -0.1816 (  2)  0.2622 (  8)  0.1007 ( 11)  0.1239 ( 16) -0.3066 ( 21)
           0.2179 ( 22) -0.1042 ( 41)  0.1267 ( 57) -0.1013 ( 58)  0.1945 ( 70)
          -0.2056 ( 71) -0.1358 ( 79) -0.1131 ( 82) -0.1644 ( 87) -0.1208 ( 88)
           0.1357 ( 91)  0.1745 ( 99)  0.1273 (100)  0.1083 (101) -0.1197 (103)
           0.1317 (112)  0.1732 (119)  0.2119 (120)  0.1647 (121) -0.1234 (122)
          -0.1670 (123) -0.1299 (124) -0.1527 (125) -0.1199 (128)
 CRD 25=  -0.1356 (  2)  0.1319 (  4) -0.1533 (  8) -0.1029 ( 11) -0.3934 ( 12)
           0.1524 ( 15)  0.1431 ( 16)  0.1545 ( 19) -0.2042 ( 21)  0.1425 ( 22)
           0.1821 ( 41) -0.1220 ( 42) -0.1084 ( 54) -0.1005 ( 57)  0.1174 ( 58)
          -0.1149 ( 59)  0.1516 ( 70) -0.1378 ( 71)  0.1202 ( 82) -0.1087 ( 88)
          -0.1133 (102) -0.1013 (103) -0.1082 (104)  0.1212 (115)  0.1109 (124)
          -0.1158 (126)  0.1671 (129)  0.2050 (130)  0.1009 (132)  0.1388 (133)
           0.1006 (135)  0.1349 (136)  0.1374 (137)  0.1105 (139)
 CRD 26=  -0.5528 (  2)  0.5103 (  3) -0.2778 ( 62)  0.3074 ( 64) -0.1240 ( 91)
           0.1680 ( 99) -0.1590 (100)  0.1802 (112) -0.1118 (113) -0.1468 (114)
          -0.1221 (119)  0.1699 (120) -0.1571 (121)
 CRD 27=  -0.2320 (  2) -0.3452 (  3)  0.6070 (  4) -0.1162 ( 15) -0.1272 ( 16)
           0.1006 ( 18)  0.1946 ( 62) -0.3296 ( 63)  0.1346 ( 64)  0.1798 ( 91)
          -0.1697 (100)  0.1965 (113) -0.1529 (114)  0.1800 (119) -0.1695 (121)
 CRD 28=   0.1033 (  3) -0.1330 (  4)  0.2193 ( 13) -0.4837 ( 15) -0.4214 ( 16)
           0.3670 ( 18)  0.3536 ( 19) -0.1683 ( 67)  0.1340 ( 68)  0.1099 (132)
           0.1616 (134)
 CRD 29=   0.1826 ( 12)  0.3539 ( 13) -0.1864 ( 15) -0.2821 ( 16) -0.4331 ( 18)
          -0.4498 ( 19) -0.1033 ( 42)  0.1166 ( 66) -0.1770 ( 68)  0.1617 (132)
           0.1262 (135)  0.1021 (138)
 CRD 30=  -0.1079 (  9)  0.4595 ( 12)  0.4799 ( 13)  0.2482 ( 15)  0.3447 ( 16)
           0.1521 ( 18)  0.2023 ( 19) -0.1021 ( 57)  0.2148 ( 66)  0.1187 ( 67)
           0.1030 ( 79)  0.1041 (125)  0.1211 (128) -0.1243 (129)  0.1387 (133)
           0.1019 (136)
 CRD 31=  -0.2576 (  8) -0.1210 ( 10) -0.1252 ( 11)  0.1372 ( 12) -0.1555 ( 13)
           0.2650 ( 18) -0.2342 ( 19) -0.1590 ( 20)  0.1005 ( 22)  0.1032 ( 39)
          -0.1204 ( 52)  0.1233 ( 54)  0.1166 ( 59) -0.1165 ( 60) -0.1110 ( 71)
           0.1307 ( 79) -0.1117 ( 80)  0.1092 ( 82) -0.1018 ( 84) -0.1117 ( 96)
          -0.1091 ( 97) -0.1244 (102) -0.1326 (107)  0.1158 (125) -0.1035 (126)
           0.1186 (128) -0.1207 (129) -0.1233 (130) -0.1241 (132) -0.1267 (133)
          -0.2115 (134) -0.1710 (135) -0.2215 (136) -0.1809 (137)  0.1011 (139)
 CRD 32=  -0.1140 (  5) -0.1140 (  6) -0.1408 (  8) -0.2358 ( 10) -0.2525 ( 18)
           0.1905 ( 19) -0.4855 ( 20) -0.1063 ( 43) -0.1063 ( 45)  0.1109 ( 46)
          -0.1606 ( 70) -0.1295 ( 71)  0.1537 ( 87) -0.1010 ( 88)  0.1627 (103)
          -0.1268 (108)  0.1046 (113)  0.1828 (119)  0.1386 (120)  0.1600 (121)
           0.2283 (123) -0.1304 (138) -0.1633 (139)
 CRD 33=   0.1175 ( 12) -0.1350 ( 13) -0.3009 ( 15)  0.2807 ( 16)  0.1075 ( 27)
           0.1058 ( 79)  0.1225 ( 80)  0.1084 ( 81)  0.1404 ( 84) -0.1306 ( 95)
          -0.1801 ( 96) -0.1610 ( 97)  0.1919 (106)  0.1559 (107) -0.1781 (115)
          -0.1960 (116) -0.2085 (129) -0.2276 (130) -0.2264 (132) -0.2455 (133)
           0.1878 (134)  0.2239 (135)  0.1700 (136)  0.2061 (137)
 CRD 34=  -0.1967 (  2) -0.1413 (  3) -0.1572 (  4)  0.1219 (  5)  0.1219 (  6)
           0.1148 (  7)  0.1331 (  8) -0.4228 ( 10) -0.1137 ( 13) -0.1139 ( 18)
           0.1321 ( 22) -0.1782 ( 31) -0.1659 ( 33) -0.1308 ( 35)  0.1777 ( 62)
           0.1697 ( 63)  0.1400 ( 64)  0.1325 ( 83) -0.1076 ( 94) -0.1039 (101)
           0.1460 (104) -0.1242 (122) -0.1254 (123)  0.1009 (125)  0.1310 (126)
          -0.1767 (127) -0.1154 (136)
 CRD 35=  -0.1549 (  1)  0.2201 (  3)  0.1310 (  4)  0.1371 (  7)  0.1145 (  8)
          -0.3355 ( 10)  0.1103 ( 11) -0.1266 ( 12)  0.1094 ( 16)  0.1120 ( 20)
          -0.1159 ( 21) -0.1047 ( 23)  0.1468 ( 33)  0.1787 ( 35)  0.1266 ( 43)
           0.1266 ( 45) -0.1198 ( 57) -0.1070 ( 58) -0.1410 ( 63) -0.2040 ( 64)
           0.1377 ( 65) -0.1304 ( 68) -0.1074 ( 82) -0.1024 ( 93) -0.1316 (110)
           0.1322 (118) -0.1275 (120)  0.1063 (122) -0.1791 (124)  0.1193 (126)
           0.1462 (128) -0.1296 (136)  0.1138 (138)
 CRD 36=  -0.1006 (  1)  0.1042 (  2)  0.1388 (  3)  0.3675 (  8) -0.1043 ( 11)
           0.1222 ( 12) -0.2025 ( 13)  0.1918 ( 15) -0.1837 ( 16) -0.1802 ( 18)
           0.1824 ( 19)  0.2186 ( 20)  0.1206 ( 21) -0.1249 ( 32)  0.1097 ( 35)
           0.1372 ( 46)  0.1405 ( 47)  0.1136 ( 48)  0.1492 ( 51) -0.1459 ( 63)
          -0.1464 ( 65) -0.1857 ( 69) -0.1093 ( 74)  0.1470 ( 83) -0.1957 ( 85)
           0.1012 (110) -0.1587 (118) -0.2054 (126)  0.1212 (138)
 CRD 37=  -0.1125 (  5) -0.1125 (  6)  0.1150 (  8)  0.4517 ( 11)  0.1215 ( 12)
          -0.1520 ( 13)  0.1826 ( 15) -0.1820 ( 16) -0.1782 ( 18)  0.1776 ( 19)
          -0.2385 ( 20) -0.1275 ( 21) -0.1179 ( 22)  0.1216 ( 32) -0.2378 ( 46)
          -0.2357 ( 47)  0.2116 ( 69)  0.1429 ( 70)  0.1358 ( 71) -0.2495 ( 83)
           0.2472 ( 85)
 CRD 38=  -0.4401 (  1)  0.1887 (  2)  0.1699 (  4) -0.1139 (  8)  0.1771 ( 12)
           0.1076 ( 22)  0.1212 ( 29)  0.1734 ( 31)  0.1636 ( 33)  0.1541 ( 35)
           0.1212 ( 36)  0.1005 ( 41) -0.1059 ( 51) -0.1147 ( 55) -0.1199 ( 56)
           0.1479 ( 59)  0.1185 ( 60) -0.2142 ( 62) -0.1516 ( 63) -0.1397 ( 64)
          -0.1196 ( 66)  0.1144 ( 68)  0.1006 ( 72) -0.1296 ( 96) -0.1023 ( 98)
           0.1194 (115) -0.1084 (122) -0.1249 (123) -0.1549 (127)  0.2101 (129)
          -0.1385 (133) -0.1601 (138)
 CRD 39=   0.1488 (  1)  0.2802 (  7)  0.2326 ( 14) -0.1126 ( 16) -0.3235 ( 17)
          -0.1335 ( 19) -0.1645 ( 21)  0.1576 ( 22) -0.1265 ( 27) -0.1938 ( 39)
          -0.1647 ( 52) -0.2018 ( 54)  0.1229 ( 55)  0.1202 ( 59)  0.1049 ( 60)
           0.1280 ( 67)  0.1573 ( 80) -0.1514 ( 84) -0.1037 (106)  0.1576 (107)
          -0.1071 (125) -0.2317 (135)  0.3384 (136)
 CRD 40=  -0.1322 (  1)  0.1004 (  2)  0.2328 (  9) -0.1883 ( 14) -0.1031 ( 16)
           0.1096 ( 17) -0.3084 ( 21)  0.3535 ( 22) -0.1013 ( 27)  0.1137 ( 47)
           0.1108 ( 52)  0.1060 ( 55) -0.1468 ( 59) -0.1702 ( 60) -0.1174 ( 62)
           0.1118 ( 67) -0.1280 ( 70)  0.1326 ( 71)  0.1081 ( 76) -0.1061 ( 85)
           0.1083 ( 88)  0.1246 ( 96) -0.1450 ( 97) -0.1682 (127) -0.2319 (129)
          -0.1047 (132)  0.1649 (133) -0.1190 (139)
 CRD 41=   0.2205 (  2) -0.1282 (  3) -0.1332 (  4)  0.1677 (  5)  0.1677 (  6)
          -0.1063 (  7) -0.2381 (  9)  0.1610 ( 14)  0.1147 ( 16) -0.1029 ( 39)
           0.1388 ( 41)  0.1875 ( 42) -0.1701 ( 57) -0.1628 ( 58)  0.1994 ( 64)
           0.1505 ( 79) -0.1152 ( 80) -0.1000 ( 83) -0.1828 (100) -0.1142 (104)
           0.1228 (112) -0.1171 (114) -0.1492 (116)  0.1894 (120)  0.1704 (125)
          -0.1245 (126)  0.1247 (128)  0.1300 (129)  0.1138 (130) -0.1039 (131)
          -0.1038 (133)  0.1106 (134) -0.1719 (137)
 CRD 42=   0.1412 (  3) -0.2481 (  4) -0.1811 (  7)  0.1880 (  8)  0.1047 ( 13)
          -0.1056 ( 15)  0.1282 ( 16) -0.2193 ( 21)  0.2317 ( 22)  0.1593 ( 27)
          -0.1073 ( 41) -0.1048 ( 46) -0.1113 ( 52) -0.1298 ( 55)  0.1195 ( 58)
           0.1088 ( 60)  0.1334 ( 62) -0.1727 ( 63)  0.1078 ( 71)  0.1329 ( 82)
          -0.1277 ( 84)  0.1225 ( 91)  0.1053 ( 93)  0.1324 ( 97) -0.1446 (100)
          -0.1015 (111)  0.2068 (113) -0.1012 (115)  0.1508 (119) -0.1162 (121)
           0.1321 (122)  0.1257 (124)  0.1055 (131)  0.1147 (132) -0.1771 (134)
          -0.1051 (136)
 CRD 43=  -0.1245 (  1)  0.1156 (  2)  0.1939 (  5)  0.1939 (  6)  0.1305 (  9)
          -0.1333 ( 10)  0.1292 ( 11)  0.3583 ( 20) -0.2069 ( 22) -0.1137 ( 41)
           0.3241 ( 69) -0.1314 ( 70) -0.1747 ( 71)  0.1211 ( 85)  0.1890 ( 87)
          -0.2097 ( 88) -0.2318 (102)  0.1669 (103) -0.1824 (122)  0.2163 (123)
          -0.1236 (129)
 CRD 44=  -0.2076 (  1)  0.1564 (  3) -0.1593 (  4)  0.1591 (  7)  0.1560 (  9)
          -0.1018 ( 12)  0.1064 ( 13) -0.1615 ( 15) -0.1458 ( 20)  0.2465 ( 21)
          -0.1408 ( 22) -0.1238 ( 39)  0.1068 ( 46) -0.1103 ( 50) -0.1740 ( 63)
           0.1443 ( 67) -0.1137 ( 69)  0.1278 ( 70)  0.1007 ( 82)  0.1322 ( 83)
          -0.1339 ( 84) -0.1447 ( 87)  0.1475 ( 96) -0.1257 (100) -0.1215 (103)
           0.1238 (111)  0.1397 (113) -0.1530 (117)  0.1357 (119) -0.2075 (123)
           0.1332 (124)  0.1067 (131) -0.1541 (135)
 CRD 45=  -0.1793 (  5) -0.1793 (  6)  0.1093 ( 10)  0.1787 ( 12)  0.1178 ( 13)
          -0.2172 ( 14) -0.1387 ( 17)  0.1435 ( 19)  0.2210 ( 20)  0.1002 ( 30)
           0.1002 ( 37)  0.1159 ( 56) -0.2388 ( 66) -0.1307 ( 68)  0.1423 ( 69)
          -0.1049 ( 71)  0.1539 ( 76)  0.1242 ( 82)  0.1090 ( 87) -0.1397 ( 88)
           0.1505 ( 98) -0.1107 (102)  0.1379 (103)  0.1162 (115) -0.1328 (116)
          -0.2343 (122)  0.1213 (124) -0.1977 (128)  0.1524 (129)  0.1502 (130)
          -0.1261 (136)  0.1317 (138)
 CRD 46=   0.2542 (  2) -0.2803 (  3)  0.1106 (  9) -0.1519 ( 17)  0.1760 ( 19)
          -0.1169 ( 23) -0.1537 ( 31)  0.1472 ( 35)  0.1045 ( 58) -0.2050 ( 62)
           0.2055 ( 64) -0.1376 ( 68)  0.1343 ( 78) -0.1182 ( 91)  0.2329 ( 99)
          -0.1005 (100) -0.1047 (103) -0.1342 (107)  0.2214 (112) -0.1297 (113)
          -0.1121 (114) -0.1392 (119)  0.2119 (120) -0.1215 (121)  0.1291 (131)
          -0.1660 (134)  0.1110 (138)
 CRD 47=  -0.1051 ( 11) -0.1766 ( 12)  0.2298 ( 13) -0.2753 ( 18)  0.1005 ( 19)
          -0.1196 ( 27)  0.1353 ( 42) -0.1191 ( 54) -0.1094 ( 55) -0.1565 ( 57)
           0.1435 ( 68)  0.1711 ( 72)  0.1456 ( 74)  0.1217 ( 79)  0.1014 ( 80)
           0.1169 ( 82)  0.1922 ( 93) -0.2488 (106) -0.1305 (109) -0.1531 (110)
          -0.1799 (116)  0.1476 (118)  0.1184 (126) -0.1168 (130) -0.1714 (132)
          -0.2157 (133) -0.1603 (135) -0.1409 (137)  0.1591 (139)
 CRD 48=   0.1152 (  1)  0.1259 (  2) -0.2067 (  4) -0.1392 (  5) -0.1392 (  6)
          -0.1799 ( 11)  0.1479 ( 15) -0.1788 ( 16)  0.1775 ( 17) -0.1083 ( 19)
          -0.1329 ( 23) -0.1029 ( 31)  0.1048 ( 33) -0.1164 ( 51)  0.1189 ( 52)
          -0.1476 ( 56) -0.1410 ( 60) -0.1363 ( 63)  0.1190 ( 64)  0.1547 ( 72)
          -0.1580 ( 75)  0.1465 ( 77)  0.1505 ( 91) -0.1507 ( 97) -0.1109 ( 98)
          -0.1175 (100)  0.1072 (108) -0.1293 (110) -0.1827 (114)  0.1264 (115)
           0.1536 (118) -0.1735 (121) -0.1645 (124) -0.1389 (132)  0.1240 (134)
           0.1256 (135)  0.1154 (139)
 CRD 49=   0.1267 (  7)  0.1919 (  9) -0.1847 ( 14)  0.1775 ( 15)  0.1812 ( 16)
          -0.2191 ( 17) -0.1097 ( 40)  0.2267 ( 53)  0.1307 ( 55)  0.1323 ( 58)
          -0.2863 ( 67) -0.1658 ( 80)  0.1549 ( 84) -0.1728 ( 96)  0.1775 ( 97)
           0.1240 (107) -0.1484 (115) -0.3149 (130)  0.2759 (132)  0.2732 (134)
          -0.2347 (137)
 CRD 50=   0.1731 (  7)  0.1393 ( 12) -0.2529 ( 14)  0.2060 ( 17) -0.1696 ( 19)
          -0.1212 ( 23) -0.1732 ( 34)  0.1163 ( 40)  0.1209 ( 51)  0.1209 ( 54)
          -0.1454 ( 59) -0.1619 ( 66)  0.2069 ( 68) -0.2013 ( 76) -0.1518 ( 79)
          -0.1301 ( 80) -0.1488 ( 98) -0.1055 (103)  0.1653 (107)  0.1457 (112)
           0.1206 (124) -0.1164 (125)  0.1599 (130)  0.1593 (131)  0.1828 (134)
          -0.2221 (137) -0.1098 (138)  0.1276 (139)
 CRD 51=   0.2845 (  5)  0.2845 (  6) -0.1196 (  7) -0.1317 ( 10)  0.1488 ( 13)
          -0.1416 ( 14)  0.1318 ( 15) -0.1055 ( 16)  0.1006 ( 18) -0.1244 ( 28)
          -0.1244 ( 38)  0.1540 ( 40)  0.1743 ( 51)  0.1162 ( 52) -0.1487 ( 66)
           0.1106 ( 77) -0.1082 ( 79) -0.1224 ( 81)  0.1244 ( 82)  0.1240 ( 95)
          -0.1133 (101) -0.1588 (103) -0.1215 (107) -0.1208 (110)  0.1356 (115)
           0.1299 (122) -0.1409 (125)  0.2378 (131) -0.1703 (132) -0.1679 (133)
           0.1646 (135)  0.1315 (137)
 CRD 52=  -0.2089 (  1)  0.2254 (  7) -0.2188 (  9)  0.1555 ( 10)  0.1895 ( 24)
           0.1895 ( 26)  0.1701 ( 28) -0.2343 ( 29) -0.2343 ( 36)  0.1701 ( 38)
          -0.1840 ( 44) -0.1840 ( 49) -0.1237 ( 74) -0.1241 ( 75)  0.1224 ( 86)
          -0.1387 ( 87) -0.1349 ( 88) -0.1636 ( 89) -0.2184 ( 94)  0.1511 ( 99)
           0.1582 (104)  0.1008 (122)  0.1586 (126)  0.1967 (140)
 CRD 53=   0.1829 (  5)  0.1829 (  6) -0.1317 (  8)  0.1153 ( 12) -0.1045 ( 13)
          -0.1137 ( 15) -0.1306 ( 18)  0.1084 ( 19) -0.1159 ( 27) -0.1185 ( 42)
           0.1115 ( 56)  0.1084 ( 57)  0.1863 ( 72) -0.1334 ( 75)  0.1800 ( 76)
           0.2028 ( 81)  0.1394 ( 90) -0.1196 ( 92) -0.2069 ( 95) -0.1044 (103)
          -0.1119 (108)  0.1633 (109) -0.1577 (112) -0.1800 (114)  0.1585 (118)
           0.1142 (122) -0.2047 (124) -0.2370 (125)  0.1258 (130)  0.1403 (133)
          -0.1127 (134) -0.1594 (135) -0.1078 (137)
 CRD 54=  -0.1554 (  8)  0.1634 ( 11) -0.1043 ( 30) -0.1043 ( 37)  0.1430 ( 43)
           0.1430 ( 45) -0.1011 ( 65)  0.1606 ( 72) -0.1565 ( 73) -0.3501 ( 74)
           0.1429 ( 76) -0.1302 ( 79) -0.1217 ( 82) -0.1930 ( 90)  0.2378 ( 91)
          -0.1835 ( 92) -0.1048 ( 93) -0.1225 ( 98)  0.1835 ( 99)  0.1183 (100)
           0.1318 (104)  0.2364 (105)  0.1276 (110) -0.1145 (112) -0.1797 (114)
           0.1108 (117)  0.1988 (124)  0.1904 (125) -0.1874 (126)

 THE DETERMINANT OF THE G MATRIX IS 10**(   -12)


                     --------------------
                     INTERNAL COORDINATES
                     --------------------

                 - - ATOMS - -         COORDINATE      COORDINATE
 NO.   TYPE    I  J  K  L  M  N        (BOHR,RAD)       (ANG,DEG)
 ----------------------------------------------------------------
   1 STRETCH   1  2                     2.9024189       1.5358941
   2 STRETCH   1  7                     2.0514871       1.0856003
   3 STRETCH   1  9                     2.0503381       1.0849923
   4 STRETCH   1  8                     2.0577651       1.0889225
   5 STRETCH   2  3                     2.6730911       1.4145390
   6 STRETCH   2  3                     2.6730911       1.4145390
   7 STRETCH   2  6                     2.9229896       1.5467796
   8 STRETCH   2 20                     3.7983494       2.0100001
   9 STRETCH   3  4                     2.8861136       1.5272656
  10 STRETCH   3 10                     2.0413503       1.0802361
  11 STRETCH   3 17                     3.9306300       2.0799999
  12 STRETCH   4 12                     2.0563168       1.0881561
  13 STRETCH   4 11                     2.0612909       1.0907882
  14 STRETCH   4  5                     2.9294719       1.5502099
  15 STRETCH   5 14                     2.0531824       1.0864974
  16 STRETCH   5 13                     2.0533090       1.0865644
  17 STRETCH   5  6                     2.9233923       1.5469927
  18 STRETCH   6 15                     2.0608209       1.0905395
  19 STRETCH   6 16                     2.0518227       1.0857779
  20 STRETCH  17 20                     3.7416575       1.9800000
  21 STRETCH  17 19                     2.1782350       1.1526724
  22 STRETCH  17 18                     2.1769489       1.1519918
  23 BEND      1  2  6                  2.0862978     119.5360589
  24 BEND      1  2  3                  2.1162099     121.2498956
  25 BEND      1  2 20                  1.5277649      87.5344803
  26 BEND      1  2  3                  2.1162099     121.2498956
  27 BEND      2  6 16                  1.9856256     113.7679679
  28 BEND      2  3  4                  1.9467536     111.5407673
  29 BEND      2  3 10                  2.1253069     121.7711157
  30 BEND      2  3 17                  1.2530178      71.7926316
  31 BEND      2  1  7                  1.9324342     110.7203248
  32 BEND      2 20 17                  1.1194458      64.1395198
  33 BEND      2  1  8                  1.8946812     108.5572374
  34 BEND      2  6  5                  1.8219715     104.3912764
  35 BEND      2  1  9                  1.9433067     111.3432697
  36 BEND      2  3 10                  2.1253069     121.7711157
  37 BEND      2  3 17                  1.2530178      71.7926316
  38 BEND      2  3  4                  1.9467536     111.5407673
  39 BEND      2  6 15                  1.8646132     106.8344654
  40 BEND      3  4  5                  1.8115162     103.7922318
  41 BEND      3  4 11                  1.9098372     109.4256123
  42 BEND      3  4 12                  1.9802721     113.4612329
  43 BEND      3  2 20                  2.1953423     125.7838475
  44 BEND      3  2  6                  1.8831675     107.8975493
  45 BEND      3  2 20                  2.1953423     125.7838475
  46 BEND      3 17 18                  1.8550178     106.2846916
  47 BEND      3 17 19                  1.8541164     106.2330472
  48 BEND      3 17 20                  1.7071023      97.8097557
  49 BEND      3  2  6                  1.8831675     107.8975493
  50 BEND      4  3 17                  1.9447615     111.4266270
  51 BEND      4  3 10                  2.1290942     121.9881140
  52 BEND      4  5 13                  1.9590080     112.2428925
  53 BEND      4  5  6                  1.8288779     104.7869873
  54 BEND      4  5 14                  1.9217817     110.1099780
  55 BEND      5  6 16                  1.9773625     113.2945255
  56 BEND      5  6 15                  1.9233317     110.1987865
  57 BEND      5  4 11                  1.9287989     110.5120375
  58 BEND      5  4 12                  1.9577558     112.1711465
  59 BEND      6  5 13                  1.9510101     111.7846417
  60 BEND      6  5 14                  1.9174874     109.8639334
  61 BEND      6  2 20                  1.5862033      90.8827562
  62 BEND      7  1  8                  1.8922076     108.4155111
  63 BEND      7  1  9                  1.9017804     108.9639926
  64 BEND      8  1  9                  1.8984472     108.7730107
  65 BEND     10  3 17                  1.8427872     105.5839310
  66 BEND     11  4 12                  1.8757177     107.4707072
  67 BEND     13  5 14                  1.8856199     108.0380602
  68 BEND     15  6 16                  1.8874675     108.1439244
  69 BEND     18 17 19                  2.2821643     130.7583851
  70 BEND     18 17 20                  1.8308252     104.8985579
  71 BEND     19 17 20                  1.8525678     106.1443173
  72 TORSION   1  2  6 16               1.2556814      71.9452448
  73 TORSION   1  2  3 17              -1.8471620    -105.8345842
  74 TORSION   1  2  3 10              -0.1470637      -8.4261306
  75 TORSION   1  2  3  4               2.5776786     147.6901055
  76 TORSION   1  2  6 15              -0.8257695     -47.3131072
  77 TORSION   1  2  6  5              -2.8634013    -164.0608086
  78 TORSION   1  2 20 17               2.1053665     120.6286126
  79 TORSION   2  3  4 11              -1.8327248    -105.0073933
  80 TORSION   2  6  5 14              -1.5854620     -90.8402829
  81 TORSION   2  6  5  4               0.4785530      27.4190699
  82 TORSION   2  3  4 12               2.3559668     134.9869541
  83 TORSION   2 20 17 18               1.9733054     113.0620695
  84 TORSION   2  6  5 13               2.6045415     149.2292341
  85 TORSION   2 20 17 19              -1.8438858    -105.6468726
  86 TORSION   2 20 17  3               0.0668704       3.8313931
  87 TORSION   2  3 17 18              -1.9765076    -113.2455461
  88 TORSION   2  3 17 19               1.8194165     104.2448875
  89 TORSION   2  3 17 20              -0.0900660      -5.1604002
  90 TORSION   2  3  4  5               0.2264075      12.9721964
  91 TORSION   3  2  1  7               0.8749247      50.1294928
  92 TORSION   3  2  6  5              -0.3492009     -20.0077390
  93 TORSION   3  2  6 16              -2.5133035    -144.0016856
  94 TORSION   3  2 20 17              -0.1202863      -6.8918986
  95 TORSION   3  4  5  6              -0.4310855     -24.6993773
  96 TORSION   3  4  5 13              -2.5518300    -146.2090876
  97 TORSION   3  4  5 14               1.6300138      93.3929089
  98 TORSION   3  2  6 15               1.6884309      96.7399624
  99 TORSION   3  2  1  8              -1.2002524     -68.7693948
 100 TORSION   3  2  1  9               2.9935592     171.5183099
 101 TORSION   4  3 17 20               1.7709171     101.4660761
 102 TORSION   4  3 17 19              -2.6027857    -149.1286361
 103 TORSION   4  3 17 18              -0.1155246      -6.6190697
 104 TORSION   4  3  2 20              -1.7499262    -100.2633876
 105 TORSION   4  3  2  6               0.0763744       4.3759305
 106 TORSION   4  5  6 16               2.6479611     151.7169976
 107 TORSION   4  5  6 15              -1.5179718     -86.9733766
 108 TORSION   5  6  2 20               1.8897180     108.2728678
 109 TORSION   5  4  3 17              -1.1369508     -65.1424821
 110 TORSION   5  4  3 10               2.9501054     169.0285868
 111 TORSION   6  2 20 17              -2.0916913    -119.8450814
 112 TORSION   6  2  1  8               1.2292306      70.4297274
 113 TORSION   6  2  1  7              -2.9787776    -170.6713850
 114 TORSION   6  2  1  9              -0.8601431     -49.2825679
 115 TORSION   6  5  4 11               1.6148688      92.5251664
 116 TORSION   6  5  4 12              -2.5755473    -147.5679893
 117 TORSION   6  2  3 17               1.9347191     110.8512408
 118 TORSION   6  2  3 10              -2.6483679    -151.7403056
 119 TORSION   7  1  2 20              -1.4146542     -81.0537147
 120 TORSION   8  1  2 20               2.7933540     160.0473977
 121 TORSION   9  1  2 20               0.7039803      40.3351024
 122 TORSION  10  3 17 19              -0.2562511     -14.6821064
 123 TORSION  10  3 17 18               2.2310101     127.8274600
 124 TORSION  10  3  4 12              -1.2035207     -68.9566556
 125 TORSION  10  3  4 11               0.8909731      51.0489971
 126 TORSION  10  3  2 20               1.8085167     103.6203763
 127 TORSION  10  3 17 20              -2.1657336    -124.0873941
 128 TORSION  11  4  3 17               3.0871022     176.8779282
 129 TORSION  11  4  5 14              -2.6072173    -149.3825475
 130 TORSION  11  4  5 13              -0.5058757     -28.9845440
 131 TORSION  12  4  3 17               0.9926085      56.8722756
 132 TORSION  12  4  5 14              -0.5144481     -29.4757032
 133 TORSION  12  4  5 13               1.5868935      90.9223003
 134 TORSION  13  5  6 15               0.6080166      34.8367877
 135 TORSION  13  5  6 16              -1.5092357     -86.4728381
 136 TORSION  14  5  6 15               2.7011984     154.7672707
 137 TORSION  14  5  6 16               0.5839461      33.4576449
 138 TORSION  15  6  2 20              -2.3558355    -134.9794308
 139 TORSION  16  6  2 20              -0.2743846     -15.7210787
 140 TORSION  17  3  2 20               0.1084185       6.2119227

     ------------------------------------------
     THE POINT GROUP IS C1 , NAXIS= 0, ORDER= 1
     ------------------------------------------

     DIMENSIONS OF THE SYMMETRY SUBSPACES ARE
 A   =   48

 ..... DONE SETTING UP THE RUN .....
 STEP CPU TIME =     0.05 TOTAL CPU TIME =          0.0 (      0.0 MIN)
 TOTAL WALL CLOCK TIME=          0.1 SECONDS, CPU UTILIZATION IS    71.43%


          -----------------------------
          STATIONARY POINT LOCATION RUN
          -----------------------------

 OBTAINING INITIAL HESSIAN, HESS=CALC    

     ---------------------------------
     HESSIAN MATRIX CONTROL PARAMETERS
     ---------------------------------
     METHOD=ANALYTIC   NVIB  =       2   VIBSIZ= 0.01000
     RDHESS=       F   PURIFY=       F   PRTIFC=       F
     VIBANL=       F   DECOMP=       F   PROJCT=       F
     SCLFAC= 1.00000   PRTSCN=       F   NPRT  =       0
     PULCOR=       F   NPUN  =       0   REDOVB=       T
     HSSTYP=GENERAL 
 Old integral subroutine is used

     ------------------------------
     CPHF RESPONSE SOLUTION OPTIONS
     ------------------------------
     POLAR  =       F     NWORD  =       0
     CPHF   =AO      

          ********************
          1 ELECTRON INTEGRALS
          ********************
 ...... END OF ONE-ELECTRON INTEGRALS ......
 STEP CPU TIME =     0.02 TOTAL CPU TIME =          0.1 (      0.0 MIN)
 TOTAL WALL CLOCK TIME=          0.1 SECONDS, CPU UTILIZATION IS    77.78%

          -------------
          GUESS OPTIONS
          -------------
          GUESS =HUCKEL            NORB  =       0          NORDER=       0
          MIX   =       F          PRTMO =       F          PUNMO =       F
          TOLZ  = 1.0E-08          TOLE  = 1.0E-05
          SYMDEN=       F          PURIFY=       F

 INITIAL GUESS ORBITALS GENERATED BY HUCKEL   ROUTINE.
 HUCKEL GUESS REQUIRES     39252 WORDS.

 SYMMETRIES FOR INITIAL GUESS ORBITALS FOLLOW.   BOTH SET(S).
    27 ORBITALS ARE OCCUPIED (    7 CORE ORBITALS).
     8=A        9=A       10=A       11=A       12=A       13=A       14=A   
    15=A       16=A       17=A       18=A       19=A       20=A       21=A   
    22=A       23=A       24=A       25=A       26=A       27=A       28=A   
    29=A       30=A       31=A       32=A       33=A       34=A       35=A   
    36=A       37=A   
 ...... END OF INITIAL ORBITAL SELECTION ......
 STEP CPU TIME =     0.02 TOTAL CPU TIME =          0.1 (      0.0 MIN)
 TOTAL WALL CLOCK TIME=          0.1 SECONDS, CPU UTILIZATION IS    75.00%

                    ----------------------
                    AO INTEGRAL TECHNOLOGY
                    ----------------------
     S,P,L SHELL ROTATED AXIS INTEGRALS, REPROGRAMMED BY
        KAZUYA ISHIMURA (IMS) AND JOSE SIERRA (SYNSTAR).
     S,P,D,L SHELL ROTATED AXIS INTEGRALS PROGRAMMED BY
        KAZUYA ISHIMURA (INSTITUTE FOR MOLECULAR SCIENCE).
     S,P,D,F,G SHELL TO TOTAL QUARTET ANGULAR MOMENTUM SUM 5,
        ERIC PROGRAM BY GRAHAM FLETCHER (ELORET AND NASA ADVANCED
        SUPERCOMPUTING DIVISION, AMES RESEARCH CENTER).
     S,P,D,F,G,L SHELL GENERAL RYS QUADRATURE PROGRAMMED BY
        MICHEL DUPUIS (PACIFIC NORTHWEST NATIONAL LABORATORY).

          --------------------
          2 ELECTRON INTEGRALS
          --------------------

 THE -PK- OPTION IS OFF, THE INTEGRALS ARE NOT IN SUPERMATRIX FORM.
 STORING   15000 INTEGRALS/RECORD ON DISK, USING 12 BYTES/INTEGRAL.
 TWO ELECTRON INTEGRAL EVALUATION REQUIRES   89734 WORDS OF MEMORY.
 SCHWARZ INEQUALITY OVERHEAD:      1164 INTEGRALS, T=        0.00
 II,JST,KST,LST =  1  1  1  1 NREC =         1 INTLOC =    1
 II,JST,KST,LST =  2  1  1  1 NREC =         1 INTLOC =    2
 II,JST,KST,LST =  3  1  1  1 NREC =         1 INTLOC =   34
 II,JST,KST,LST =  4  1  1  1 NREC =         1 INTLOC =  137
 II,JST,KST,LST =  5  1  1  1 NREC =         1 INTLOC = 1346
 II,JST,KST,LST =  6  1  1  1 NREC =         1 INTLOC = 1931
 II,JST,KST,LST =  7  1  1  1 NREC =         1 INTLOC = 6813
 II,JST,KST,LST =  8  1  1  1 NREC =         1 INTLOC = 8434
 II,JST,KST,LST =  9  1  1  1 NREC =         2 INTLOC = 5670
 II,JST,KST,LST = 10  1  1  1 NREC =         2 INTLOC = 9071
 II,JST,KST,LST = 11  1  1  1 NREC =         4 INTLOC = 3712
 II,JST,KST,LST = 12  1  1  1 NREC =         4 INTLOC =10588
 II,JST,KST,LST = 13  1  1  1 NREC =         7 INTLOC =10236
 II,JST,KST,LST = 14  1  1  1 NREC =         8 INTLOC = 9207
 II,JST,KST,LST = 15  1  1  1 NREC =         9 INTLOC = 9823
 II,JST,KST,LST = 16  1  1  1 NREC =        10 INTLOC =11761
 II,JST,KST,LST = 17  1  1  1 NREC =        12 INTLOC =  810
 II,JST,KST,LST = 18  1  1  1 NREC =        13 INTLOC = 6432
 II,JST,KST,LST = 19  1  1  1 NREC =        14 INTLOC =13571
 II,JST,KST,LST = 20  1  1  1 NREC =        16 INTLOC = 7682
 II,JST,KST,LST = 21  1  1  1 NREC =        18 INTLOC = 4058
 II,JST,KST,LST = 22  1  1  1 NREC =        20 INTLOC = 3056
 II,JST,KST,LST = 23  1  1  1 NREC =        22 INTLOC = 4289
 II,JST,KST,LST = 24  1  1  1 NREC =        24 INTLOC = 1728
 II,JST,KST,LST = 25  1  1  1 NREC =        34 INTLOC =11963
 II,JST,KST,LST = 26  1  1  1 NREC =        37 INTLOC =14049
 II,JST,KST,LST = 27  1  1  1 NREC =        41 INTLOC = 3812
 SCHWARZ INEQUALITY TEST SKIPPED        7773 INTEGRAL BLOCKS.
 TOTAL NUMBER OF NONZERO TWO-ELECTRON INTEGRALS =              657635
         44 INTEGRAL RECORDS WERE STORED ON DISK FILE  8.
  ...... END OF TWO-ELECTRON INTEGRALS .....
 STEP CPU TIME =     0.20 TOTAL CPU TIME =          0.3 (      0.0 MIN)
 TOTAL WALL CLOCK TIME=          0.3 SECONDS, CPU UTILIZATION IS    90.62%

          --------------------------
                 RHF SCF CALCULATION
          --------------------------

     NUCLEAR ENERGY =       304.1671377538
     MAXIT =   30     NPUNCH=    2
     EXTRAP=T  DAMP=F  SHIFT=F  RSTRCT=F  DIIS=F  DEM=F  SOSCF=T
     DENSITY MATRIX CONV=  1.00E-05
     SOSCF WILL OPTIMIZE     567 ORBITAL ROTATIONS, SOGTOL=   0.250
     MEMORY REQUIRED FOR RHF ITERS=     49068 WORDS.

 ITER EX DEM     TOTAL ENERGY        E CHANGE  DENSITY CHANGE     ORB. GRAD
   1  0  0     -255.8160220952  -255.8160220952   0.324204410   0.000000000
          ---------------START SECOND ORDER SCF---------------
   2  1  0     -256.1550669502    -0.3390448551   0.110159215   0.022817566
   3  2  0     -256.1706579848    -0.0155910345   0.037293519   0.008708294
   4  3  0     -256.1728291513    -0.0021711665   0.005019575   0.001022659
   5  4  0     -256.1728799651    -0.0000508138   0.001632303   0.000368938
   6  5  0     -256.1728834127    -0.0000034476   0.000703182   0.000107267
   7  6  0     -256.1728840405    -0.0000006278   0.000273512   0.000044964
   8  7  0     -256.1728840928    -0.0000000523   0.000044616   0.000009987
   9  8  0     -256.1728840993    -0.0000000065   0.000010728   0.000002566
  10  9  0     -256.1728840997    -0.0000000004   0.000003342   0.000000690
  11 10  0     -256.1728840998    -0.0000000000   0.000001238   0.000000266

          -----------------
          DENSITY CONVERGED
          -----------------
     TIME TO FORM FOCK OPERATORS=       0.1 SECONDS (       0.0 SEC/ITER)
     TIME TO SOLVE SCF EQUATIONS=       0.0 SECONDS (       0.0 SEC/ITER)

 FINAL RHF ENERGY IS     -256.1728840998 AFTER  11 ITERATIONS

          ------------
          EIGENVECTORS
          ------------

                      1          2          3          4          5
                  -11.1089   -11.0647   -11.0632   -11.0536   -11.0505
                     A          A          A          A          A   
    1  C  1  S   -0.002867   0.991913   0.008306   0.000102   0.000457
    2  C  1  S   -0.005434   0.037783   0.000464  -0.000020  -0.000069
    3  C  1  X   -0.003987  -0.000137   0.000033  -0.000018  -0.000073
    4  C  1  Y    0.000071  -0.000046   0.000052   0.000027  -0.000028
    5  C  1  Z   -0.000493  -0.000193   0.000021  -0.000009  -0.000005
    6  C  2  S    0.992310   0.003810   0.003776   0.000553   0.000759
    7  C  2  S    0.034557  -0.005496  -0.005547   0.000207   0.000095
    8  C  2  X    0.001137   0.004273  -0.002092   0.000065  -0.000172
    9  C  2  Y   -0.001068   0.000068  -0.003625  -0.000044   0.000005
   10  C  2  Z   -0.001300   0.000706   0.000670  -0.000014  -0.000055
   11  C  3  S    0.002373  -0.000452  -0.001132  -0.004974  -0.002174
   12  C  3  S   -0.006445   0.000122   0.000106  -0.005983  -0.000258
   13  C  3  X    0.002645  -0.000084  -0.000019  -0.003918  -0.000216
   14  C  3  Y   -0.003443  -0.000056  -0.000049  -0.001251  -0.000228
   15  C  3  Z   -0.000766  -0.000053   0.000031   0.001204  -0.000049
   16  C  4  S   -0.000510  -0.000091  -0.004094   0.990610   0.051341
   17  C  4  S    0.000120  -0.000020  -0.000005   0.037573  -0.003628
   18  C  4  X    0.000015   0.000009   0.000180  -0.000229  -0.000305
   19  C  4  Y   -0.000072  -0.000001  -0.000008   0.000144  -0.003929
   20  C  4  Z   -0.000006  -0.000026   0.000111  -0.000138  -0.001353
   21  C  5  S   -0.000608  -0.000339  -0.011595  -0.050396   0.990620
   22  C  5  S    0.000092  -0.000026  -0.005976  -0.007484   0.036823
   23  C  5  X    0.000032   0.000025   0.003928   0.000102   0.000080
   24  C  5  Y    0.000161   0.000039  -0.001354   0.003906   0.000256
   25  C  5  Z   -0.000104  -0.000031  -0.000187   0.001382   0.000261
   26  C  6  S   -0.002772  -0.008305   0.991849   0.003508   0.012783
   27  C  6  S   -0.005460  -0.000185   0.037243   0.000483  -0.005147
   28  C  6  X    0.002089  -0.000026  -0.000228   0.000258  -0.004027
   29  C  6  Y    0.003411  -0.000018  -0.000129   0.000092   0.001171
   30  C  6  Z   -0.000560  -0.000038  -0.000412   0.000125   0.000175
   31  H  7  S    0.000039  -0.006982  -0.000123  -0.000018  -0.000011
   32  H  8  S   -0.000076  -0.007001  -0.000010   0.000006   0.000003
   33  H  9  S    0.000023  -0.006956  -0.000141  -0.000005  -0.000019
   34  H 10  S    0.000092  -0.000123  -0.000052   0.000132  -0.000100
   35  H 11  S   -0.000007   0.000001   0.000057  -0.007007  -0.000289
   36  H 12  S   -0.000035   0.000006  -0.000084  -0.006942  -0.000236
   37  H 13  S   -0.000098  -0.000011   0.000194   0.000482  -0.006977
   38  H 14  S    0.000031   0.000006   0.000134   0.000430  -0.007017
   39  H 15  S   -0.000081  -0.000021  -0.007044  -0.000015  -0.000026
   40  H 16  S    0.000056   0.000094  -0.006924  -0.000143   0.000031
   41  B 17  S    0.000305  -0.000002   0.000004   0.000005   0.000010
   42  B 17  S   -0.001927   0.000045   0.000016   0.000052  -0.000044
   43  B 17  X    0.000834   0.000010  -0.000016  -0.000040  -0.000095
   44  B 17  Y   -0.001341   0.000036  -0.000018  -0.000047  -0.000079
   45  B 17  Z    0.001578  -0.000022   0.000013   0.000016   0.000023
   46  H 18  S    0.000024  -0.000022  -0.000004  -0.000062   0.000103
   47  H 19  S    0.000126   0.000062  -0.000030  -0.000049  -0.000044
   48  H 20  S   -0.001223  -0.000164  -0.000055   0.000003   0.000023

                      6          7          8          9         10
                  -11.0290    -7.3786    -1.1072    -0.9863    -0.9317
                     A          A          A          A          A   
    1  C  1  S    0.000495   0.000006  -0.055931  -0.147858  -0.023248
    2  C  1  S    0.000244   0.000127   0.149756   0.413251   0.066726
    3  C  1  X    0.000039  -0.000036   0.042828   0.042083  -0.001991
    4  C  1  Y    0.000055  -0.000028  -0.000094  -0.003511   0.021280
    5  C  1  Z    0.000017   0.000013   0.003388   0.002072   0.000184
    6  C  2  S   -0.001693   0.000393  -0.132318  -0.101443   0.002669
    7  C  2  S   -0.006758  -0.002167   0.352723   0.289465  -0.006675
    8  C  2  X   -0.002433  -0.000402   0.054906  -0.091721  -0.030038
    9  C  2  Y    0.003393   0.000976  -0.016342  -0.031920   0.156350
   10  C  2  Z    0.001781  -0.001886  -0.033575  -0.017657   0.012516
   11  C  3  S    0.992124   0.000460  -0.110880  -0.016525   0.130681
   12  C  3  S    0.035822  -0.002585   0.282358   0.046467  -0.369236
   13  C  3  X   -0.001028  -0.000118  -0.008850  -0.092451  -0.024144
   14  C  3  Y    0.001543   0.000565   0.076656   0.014853  -0.010001
   15  C  3  Z    0.000216  -0.002485   0.011529   0.025177   0.011045
   16  C  4  S    0.006045   0.000024  -0.089434   0.097693   0.102788
   17  C  4  S   -0.005340   0.000090   0.233445  -0.271235  -0.296035
   18  C  4  X    0.003827   0.000049  -0.043063  -0.010735   0.048721
   19  C  4  Y    0.001207  -0.000056   0.025414  -0.047194   0.064972
   20  C  4  Z   -0.001094  -0.000129   0.020734  -0.010005   0.001117
   21  C  5  S    0.001985   0.000018  -0.089835   0.114267  -0.067791
   22  C  5  S    0.000135   0.000027   0.233501  -0.318003   0.194233
   23  C  5  X    0.000159   0.000116  -0.045207   0.005974  -0.056816
   24  C  5  Y    0.000085   0.000105  -0.025779   0.030751   0.088659
   25  C  5  Z   -0.000116  -0.000114  -0.005536   0.012319   0.021055
   26  C  6  S    0.001262   0.000018  -0.104410   0.025646  -0.149154
   27  C  6  S    0.000155   0.000006   0.274601  -0.069270   0.431064
   28  C  6  X   -0.000133  -0.000033   0.006096  -0.083513   0.014346
   29  C  6  Y    0.000140   0.000036  -0.058617  -0.012978   0.023040
   30  C  6  Z    0.000097  -0.000015  -0.002068   0.010851  -0.004146
   31  H  7  S   -0.000029  -0.000314   0.028643   0.104096   0.009063
   32  H  8  S   -0.000075  -0.000049   0.030801   0.105459   0.019849
   33  H  9  S   -0.000100   0.000097   0.027559   0.100147   0.028452
   34  H 10  S   -0.006779  -0.000160   0.051239   0.019811  -0.109108
   35  H 11  S   -0.000120  -0.000098   0.044648  -0.067873  -0.082948
   36  H 12  S   -0.000069  -0.000183   0.040534  -0.066291  -0.083988
   37  H 13  S   -0.000114  -0.000066   0.041791  -0.080280   0.059755
   38  H 14  S    0.000009  -0.000197   0.045103  -0.077620   0.053492
   39  H 15  S   -0.000024  -0.000070   0.056163  -0.013303   0.126601
   40  H 16  S   -0.000106   0.000058   0.048661  -0.014196   0.128275
   41  B 17  S    0.000388   0.990874  -0.017942  -0.010804   0.018028
   42  B 17  S   -0.002562   0.036349   0.033780   0.022318  -0.037408
   43  B 17  X   -0.000559   0.000261  -0.000525  -0.008774  -0.003485
   44  B 17  Y    0.000325  -0.000455   0.006139   0.004682   0.004342
   45  B 17  Z    0.002403  -0.000548  -0.017450  -0.009753   0.020989
   46  H 18  S    0.000315  -0.006329   0.009201   0.000794  -0.011467
   47  H 19  S    0.000304  -0.006373   0.007415   0.008567  -0.012567
   48  H 20  S    0.000089  -0.002529   0.013369   0.016635   0.004561

                     11         12         13         14         15
                   -0.8806    -0.7677    -0.6865    -0.6469    -0.6196
                     A          A          A          A          A   
    1  C  1  S   -0.146579   0.008513   0.025484  -0.001381   0.026547
    2  C  1  S    0.429001  -0.026034  -0.079200   0.004459  -0.087204
    3  C  1  X   -0.065278   0.020662   0.149449  -0.046337   0.272613
    4  C  1  Y    0.001171  -0.052547   0.046840   0.011289  -0.034095
    5  C  1  Z   -0.010539   0.010278   0.048759   0.120885   0.062704
    6  C  2  S    0.068991  -0.025204  -0.115011   0.017735  -0.057638
    7  C  2  S   -0.209543   0.078939   0.391034  -0.052225   0.207655
    8  C  2  X   -0.169443   0.018474   0.011611  -0.022297  -0.255635
    9  C  2  Y    0.024159  -0.177003   0.089131   0.030609  -0.038189
   10  C  2  Z    0.014706   0.014198   0.028056   0.189299   0.007213
   11  C  3  S    0.073442  -0.036301   0.102116   0.010760   0.024448
   12  C  3  S   -0.209387   0.109124  -0.333876  -0.027201  -0.081961
   13  C  3  X    0.079623  -0.144859   0.016468   0.070159  -0.186609
   14  C  3  Y   -0.045748   0.014941   0.247792  -0.105911  -0.146103
   15  C  3  Z   -0.035851   0.074044   0.101990   0.129538  -0.019089
   16  C  4  S   -0.086729   0.105087  -0.033035  -0.013183  -0.007717
   17  C  4  S    0.254801  -0.326429   0.105036   0.043080   0.023497
   18  C  4  X    0.073574  -0.024353   0.101498   0.103810   0.218364
   19  C  4  Y    0.043429   0.117092   0.089359  -0.120559  -0.045897
   20  C  4  Z   -0.011978   0.085158   0.017358   0.119043  -0.176244
   21  C  5  S   -0.083846  -0.123422   0.002490   0.015366  -0.004991
   22  C  5  S    0.247153   0.385291  -0.007066  -0.050913   0.012205
   23  C  5  X    0.071511   0.094946   0.033978   0.030938   0.209305
   24  C  5  Y   -0.041925   0.079535  -0.144305  -0.017076   0.125422
   25  C  5  Z   -0.021569   0.060928   0.005935   0.171273  -0.134797
   26  C  6  S    0.065921   0.082584   0.049651  -0.017199   0.009595
   27  C  6  S   -0.194287  -0.258787  -0.159824   0.056939  -0.032638
   28  C  6  X    0.063070   0.143947  -0.084298  -0.025449  -0.118181
   29  C  6  Y    0.024830  -0.061416  -0.219770   0.108675   0.137754
   30  C  6  Z   -0.008698   0.029471   0.054019   0.204686  -0.051551
   31  H  7  S    0.138437   0.017404  -0.092796   0.044142  -0.077429
   32  H  8  S    0.138775  -0.021099  -0.081693  -0.084125  -0.120763
   33  H  9  S    0.140554  -0.038350  -0.037393   0.067510  -0.123635
   34  H 10  S   -0.057916   0.052810  -0.311451   0.003824   0.110143
   35  H 11  S    0.085269  -0.166674   0.028471  -0.062176   0.163380
   36  H 12  S    0.089348  -0.142399   0.060704   0.155252   0.098559
   37  H 13  S    0.089464   0.170152  -0.050685  -0.092181   0.213853
   38  H 14  S    0.077457   0.188852   0.008358   0.112615  -0.019485
   39  H 15  S   -0.056520  -0.145493  -0.135918  -0.082014   0.091087
   40  H 16  S   -0.057402  -0.116088  -0.131323   0.186567   0.044478
   41  B 17  S    0.020249  -0.033060  -0.008425  -0.144136  -0.017412
   42  B 17  S   -0.043691   0.076338   0.022587   0.361067   0.044401
   43  B 17  X    0.000211  -0.004496  -0.003665   0.020979  -0.052091
   44  B 17  Y   -0.005204   0.000469   0.038715  -0.011474  -0.019131
   45  B 17  Z    0.021062  -0.022688   0.004589   0.003607   0.002921
   46  H 18  S   -0.011250   0.027781   0.014377   0.204890  -0.013803
   47  H 19  S   -0.011665   0.033510  -0.009799   0.184650   0.057049
   48  H 20  S   -0.009666   0.007882   0.049317   0.100692   0.036256

                     16         17         18         19         20
                   -0.5945    -0.5592    -0.5570    -0.5300    -0.4930
                     A          A          A          A          A   
    1  C  1  S   -0.003821  -0.002878  -0.000922   0.000355   0.005023
    2  C  1  S    0.011380   0.009935   0.003378  -0.001459  -0.020466
    3  C  1  X   -0.109542  -0.076870  -0.045045   0.028022  -0.199830
    4  C  1  Y   -0.081000  -0.310203   0.383570   0.021873   0.161010
    5  C  1  Z    0.028110   0.326741   0.297324  -0.276971  -0.070261
    6  C  2  S    0.027107  -0.007632  -0.002455  -0.003052  -0.007235
[...]
 18   H            X  0.00600492  0.00292933  0.13448860  0.60621555  0.60575610
                   Y -0.00664752  0.00706787  0.00424217  0.08724023  0.08738503
                   Z -0.00413091 -0.00157899  0.04165022  0.26699977  0.26114424
 19   H            X  0.00270040 -0.00222342 -0.07076019 -0.37762279  0.36572062
                   Y -0.00763739 -0.00380516 -0.12689952 -0.53797466  0.51975520
                   Z -0.00753585 -0.01284325  0.02394322  0.16560693 -0.15479974
 20   H            X -0.00410769  0.00396979 -0.49472624  0.08787772 -0.00844928
                   Y  0.00410831  0.00604675  0.74808184 -0.13287552 -0.00184819
                   Z  0.01212965 -0.00888911  0.30570424 -0.06102778 -0.00066152

 TRANS. SAYVETZ    X  0.00000015  0.00000015 -0.00000003  0.00000013 -0.00000005
                   Y -0.00000008  0.00000033  0.00000024  0.00000009 -0.00000007
                   Z -0.00000032 -0.00000013 -0.00000094  0.00000021 -0.00000003
               TOTAL  0.00000037  0.00000039  0.00000097  0.00000027  0.00000009

   ROT. SAYVETZ    X  0.00000008  0.00000417 -0.00002539  0.00000027 -0.00000146
                   Y -0.00000166 -0.00000423  0.00000699 -0.00000428 -0.00000451
                   Z -0.00000542  0.00000140 -0.00006101  0.00001883  0.00000847
               TOTAL  0.00000567  0.00000611  0.00006646  0.00001931  0.00000971

                           51          52          53          54          55
       FREQUENCY:      3573.61     3607.36     3611.17     3633.55     3730.24  
        SYMMETRY:         A           A           A           A           A   
    REDUCED MASS:      1.03892     1.06739     1.06684     1.06843     1.11044
    IR INTENSITY:      0.01099     0.08408     0.01257     0.01563     0.01570

  1   C            X -0.05008416  0.00016155 -0.00028125 -0.00009793  0.00003972
                   Y  0.00335958  0.00004990 -0.00004249  0.00008605  0.00001064
                   Z -0.01396648 -0.00000471  0.00030404 -0.00009210 -0.00009223
  2   C            X  0.00271485 -0.00025458 -0.00096403  0.00064901  0.00010531
                   Y  0.00011674 -0.00001412 -0.00167414  0.00015079  0.00016129
                   Z -0.00010627  0.00019846 -0.00020855 -0.00000751 -0.00024340
  3   C            X  0.00017349 -0.00124932 -0.00009662 -0.00013142 -0.00205151
                   Y -0.00025381  0.00201311  0.00019311 -0.00051958 -0.00653851
                   Z  0.00002029  0.00142955  0.00032668 -0.00035040 -0.00256485
  4   C            X  0.00010193  0.04066480  0.00356127 -0.00227126 -0.04557832
                   Y -0.00009683 -0.03210505 -0.00237893  0.00485356  0.03135158
                   Z -0.00010550 -0.04801777 -0.00396249  0.00706646 -0.06962261
  5   C            X  0.00008332 -0.00588981 -0.00471514 -0.05770795 -0.00080716
                   Y  0.00009595 -0.00138826 -0.00627753 -0.03885121 -0.00333162
                   Z -0.00000939  0.00155241  0.00040150 -0.01213766  0.00729384
  6   C            X  0.00036427  0.00280920 -0.02780388  0.00582777  0.00096740
                   Y -0.00034530 -0.00533592  0.06121159 -0.00650226  0.00451223
                   Z  0.00024391  0.00176198 -0.02030035  0.00422376  0.01895302
  7   H            X  0.19388509 -0.00049969  0.00225242  0.00006110 -0.00031955
                   Y  0.45773809 -0.00142865  0.00417652  0.00011347 -0.00054828
                   Z -0.13714216  0.00042826 -0.00107194 -0.00003279  0.00015316
  8   H            X  0.13780123 -0.00040922  0.00007781  0.00028946  0.00008186
                   Y -0.10948900  0.00030789 -0.00036087 -0.00023273 -0.00006007
                   Z  0.60697236 -0.00155651  0.00087212  0.00133896  0.00034240
  9   H            X  0.22361251 -0.00051685  0.00189860  0.00012505  0.00025626
                   Y -0.38817374  0.00095091 -0.00303971 -0.00044270 -0.00005281
                   Z -0.30619620  0.00066745 -0.00251711 -0.00033234  0.00005422
 10   H            X  0.00113512 -0.00849418 -0.00194830  0.00518847  0.03249886
                   Y  0.00309801 -0.02363381 -0.00620868  0.01110063  0.07084912
                   Z  0.00125570 -0.00919295 -0.00300972  0.00445578  0.03147042
 11   H            X  0.00007394 -0.03757358 -0.00303358  0.00544059 -0.02866819
                   Y  0.00014362  0.05431672  0.00501689 -0.00329783  0.03894324
                   Z  0.00158363  0.77512547  0.06353905 -0.08798348  0.52551188
 12   H            X -0.00136917 -0.41216649 -0.03159119  0.02665802  0.55658977
                   Y  0.00092837  0.29669504  0.02193426 -0.02053348 -0.40132841
                   Z -0.00082428 -0.22917323 -0.01750925  0.01635213  0.29745499
 13   H            X -0.00067772  0.03963376  0.04915959  0.35481711  0.03313823
                   Y -0.00086839  0.04036874  0.05445759  0.38654673  0.03367987
                   Z  0.00099096 -0.04860750 -0.06161173 -0.45645865 -0.04079735
 14   H            X -0.00044602  0.01880641  0.03049273  0.27828691 -0.01977078
                   Y -0.00005692  0.00655809  0.00268960  0.04227161  0.00026239
                   Z -0.00094833  0.04273772  0.05716442  0.58926958 -0.04083651
 15   H            X -0.00128147 -0.01986797  0.22546531 -0.02533732 -0.03659029
                   Y  0.00223385  0.02846284 -0.31877338  0.04014174  0.05160982
                   Z -0.00435946 -0.05977528  0.66385610 -0.08389630 -0.10584967
 16   H            X -0.00038107 -0.00893308  0.08820576 -0.00750853  0.02687055
                   Y  0.00113778  0.03441962 -0.36397824  0.02751145 -0.10525600
                   Z  0.00169182  0.04033161 -0.42372272  0.03434255 -0.11943186
 17   B            X  0.00005810 -0.00026706 -0.00028807 -0.00014201 -0.00030653
                   Y  0.00014033 -0.00002580  0.00007721  0.00005461  0.00010020
                   Z  0.00004098  0.00023558  0.00014407 -0.00019592  0.00013161
 18   H            X  0.00075672  0.00067002  0.00151524  0.00333724  0.00106872
                   Y  0.00017741  0.00008260  0.00040862  0.00151814 -0.00009439
                   Z  0.00034744  0.00036953  0.00035984  0.00058580  0.00040624
 19   H            X -0.00045393  0.00088139  0.00016762  0.00003641  0.00077911
                   Y -0.00080499  0.00068820 -0.00017467  0.00002346  0.00070918
                   Z  0.00024010 -0.00058424 -0.00001399  0.00010112  0.00010999
 20   H            X  0.00211957 -0.00013804  0.00125741 -0.00006863  0.00089919
                   Y -0.00184507  0.00043118 -0.00461542  0.00027464 -0.00135774
                   Z  0.00172490 -0.00039646  0.00117751 -0.00015369  0.00097743

 TRANS. SAYVETZ    X -0.00000004  0.00000073 -0.00000012 -0.00000058 -0.00000021
                   Y -0.00000009  0.00000028  0.00000051 -0.00000028 -0.00000010
                   Z  0.00000011 -0.00000002  0.00000017  0.00000006 -0.00000023
               TOTAL  0.00000015  0.00000078  0.00000055  0.00000065  0.00000033

   ROT. SAYVETZ    X -0.00000059 -0.00000015 -0.00000291 -0.00000052 -0.00000100
                   Y  0.00000139  0.00000073  0.00000168  0.00000018  0.00000029
                   Z  0.00000203  0.00000044  0.00000043 -0.00000020 -0.00000011
               TOTAL  0.00000253  0.00000087  0.00000339  0.00000058  0.00000104

                           56          57          58          59          60
       FREQUENCY:      3732.56     3739.33     3746.25     3751.94     3771.74  
        SYMMETRY:         A           A           A           A           A   
    REDUCED MASS:      1.11060     1.09741     1.10786     1.11134     1.11062
    IR INTENSITY:      0.00793     0.16764     0.03179     0.00624     0.03675

  1   C            X -0.00060336 -0.00041958  0.01665820  0.00032531 -0.00183994
                   Y -0.00025680  0.00013394  0.00189240  0.00000957 -0.09170388
                   Z  0.00247720  0.00456773 -0.08889846 -0.00162077 -0.00261123
  2   C            X  0.00038695 -0.00244037 -0.00101141 -0.00038732  0.00016806
                   Y  0.00127406  0.00357257  0.00044437  0.00023199  0.00028295
                   Z -0.00018324  0.00013106 -0.00033050 -0.00012956  0.00009193
  3   C            X -0.00206356 -0.03015592 -0.00172471 -0.00125312 -0.00036957
                   Y -0.00546438 -0.07344043 -0.00386148 -0.00308052 -0.00018649
                   Z -0.00241327 -0.03053128 -0.00158751 -0.00118964 -0.00014459
  4   C            X -0.00961245  0.00841051  0.00023821 -0.00382622  0.00003014
                   Y  0.00685306 -0.00303821 -0.00001945  0.00247213  0.00002787
                   Z -0.01390308  0.00551381  0.00001582 -0.00777406 -0.00000226
  5   C            X -0.00211921  0.00111014 -0.00002814  0.00246167 -0.00000781
                   Y -0.00427821  0.00044578 -0.00057001  0.02584523  0.00005007
                   Z  0.01205747  0.00183537  0.00203800 -0.08725377 -0.00004839
  6   C            X -0.00300703 -0.00027194 -0.00028119 -0.00086102  0.00035799
                   Y -0.02359306  0.00219820 -0.00027601 -0.00159925  0.00003959
                   Z -0.08546416  0.00541128 -0.00194485 -0.00929389  0.00032459
  7   H            X  0.00416607  0.00456787 -0.11991674 -0.00229616  0.27754678
                   Y  0.00977155  0.01048331 -0.28422401 -0.00533616  0.65672844
                   Z -0.00271012 -0.00293573  0.07968436  0.00148694 -0.19624571
  8   H            X -0.00394202 -0.00818717  0.15355420  0.00291809 -0.02201562
                   Y  0.00323314  0.00662872 -0.12543109 -0.00231139  0.01424532
                   Z -0.01829167 -0.03649521  0.68211471  0.01241410 -0.10025797
  9   H            X  0.00574365  0.01189805 -0.21986442 -0.00393960 -0.23709074
                   Y -0.01029779 -0.01966425  0.38577746  0.00705957  0.41444212
                   Z -0.00777333 -0.01473272  0.29639909  0.00547228  0.32620018
 10   H            X  0.02763490  0.35688599  0.01863229  0.01360914  0.00104827
                   Y  0.06255806  0.79984542  0.04143708  0.03115584  0.00262432
                   Z  0.02643257  0.34618709  0.01827676  0.01349417  0.00119309
 11   H            X -0.00576433  0.00014464  0.00001916 -0.00427376 -0.00003787
                   Y  0.00724088 -0.00309546 -0.00010188  0.00940354 -0.00000073
                   Z  0.10247239 -0.03512243 -0.00032409  0.07151432  0.00012230
 12   H            X  0.11488110 -0.07264357 -0.00194695  0.05040179 -0.00028512
                   Y -0.08208330  0.05087156  0.00128201 -0.03781762  0.00017666
                   Z  0.06147587 -0.03791679 -0.00089006  0.02786984 -0.00008528
 13   H            X  0.05132455  0.00240950  0.00735596 -0.32499989  0.00012227
                   Y  0.05688059  0.00277996  0.00808764 -0.35268534 -0.00001433
                   Z -0.06486512 -0.00277747 -0.00931198  0.41016380 -0.00001066
 14   H            X -0.02840201 -0.01017159 -0.00679452  0.29699073  0.00007762
                   Y -0.00492568 -0.00211764 -0.00116893  0.04947846  0.00004455
                   Z -0.06725050 -0.02059738 -0.01440239  0.61619625  0.00034716
 15   H            X  0.15755038 -0.00865980  0.00433279  0.02558400 -0.00052402
                   Y -0.22357712  0.01208572 -0.00624006 -0.03262689  0.00074060
                   Z  0.45764132 -0.02521506  0.01269775  0.06243992 -0.00176216
 16   H            X -0.11992060  0.00872655 -0.00211333 -0.01281491  0.00034975
                   Y  0.48493848 -0.03225572  0.00968342  0.04779863 -0.00063498
                   Z  0.54991604 -0.03678840  0.01080947  0.05529912 -0.00100328
 17   B            X -0.00008174 -0.00059570  0.00006560 -0.00032741  0.00014949
                   Y -0.00018084  0.00086967  0.00000404 -0.00005462 -0.00002280
                   Z  0.00013226  0.00128238  0.00021477 -0.00001535 -0.00004211
 18   H            X -0.00020646 -0.00027810 -0.00028847  0.00316157  0.00017198
                   Y -0.00006720  0.00108588 -0.00030501  0.00162049  0.00007894
                   Z  0.00011245  0.00089458  0.00037389  0.00043920  0.00012415
 19   H            X  0.00081029  0.00237918  0.00021606  0.00106621 -0.00009059
                   Y  0.00057528  0.00195854  0.00025123  0.00102314 -0.00029029
                   Z  0.00040745 -0.00062036 -0.00009942 -0.00003114  0.00025646
 20   H            X -0.00034445  0.00242732  0.00117643  0.00032792 -0.00112695
                   Y  0.00093971 -0.00310232 -0.00063239 -0.00049049  0.00146276
                   Z  0.00199052  0.00775744  0.00236437  0.00055515  0.00003852

 TRANS. SAYVETZ    X -0.00000001 -0.00000004 -0.00000002 -0.00000003 -0.00000002
                   Y -0.00000009 -0.00000018  0.00000008  0.00000003 -0.00000016
                   Z -0.00000024 -0.00000024 -0.00000004 -0.00000024 -0.00000003
               TOTAL  0.00000026  0.00000030  0.00000009  0.00000025  0.00000017

   ROT. SAYVETZ    X -0.00000002 -0.00000008 -0.00000054 -0.00000068 -0.00000061
                   Y  0.00000076 -0.00000100 -0.00000047 -0.00000014  0.00000052
                   Z  0.00000066  0.00000132 -0.00000010 -0.00000003  0.00000151
               TOTAL  0.00000100  0.00000165  0.00000072  0.00000069  0.00000171

 REFERENCE ON SAYVETZ CONDITIONS - A. SAYVETZ, J.CHEM.PHYS., 7, 383-389(1939).

 NOTE - THE MODES J,K ARE ORTHONORMALIZED ACCORDING TO
 SUM ON I   M(I) * (X(I,J)*X(I,K) + Y(I,J)*Y(I,K) + Z(I,J)*Z(I,K)) = DELTA(J,K)

  MODE FREQ(CM**-1)  SYMMETRY  RED. MASS  IR INTENS.
     1     696.740    A        1.831151    3.791172
     2       2.866    A        2.715791    0.123273
     3       1.876    A        3.187318    0.016735
     4       1.024    A        3.054424    0.051376
     5       0.019    A        4.808053    0.000002
     6       0.063    A        4.805173    0.000099
     7       0.240    A        4.728014    0.002254
     8     192.780    A        1.771748    0.005782
     9     214.683    A        1.034678    0.002579
    10     253.390    A        1.996528    0.096189
    11     326.332    A        2.202306    0.117717
    12     365.078    A        2.194413    0.197330
    13     438.486    A        2.244006    0.244157
    14     521.084    A        1.293687    0.026586
    15     599.794    A        3.161296    1.133306
    16     675.384    A        2.716435    0.027107
    17     750.660    A        2.207212    0.059282
    18     884.322    A        1.958718    0.039311
    19     950.997    A        1.671769    0.216529
    20    1014.703    A        2.209457    0.043283
    21    1045.862    A        1.498090    0.185058
    22    1053.522    A        1.463961    0.037097
    23    1092.660    A        2.149520    0.014923
    24    1132.397    A        1.727569    0.032373
    25    1173.484    A        1.322627    0.029942
    26    1211.875    A        1.344903    0.293997
    27    1240.913    A        1.380248    0.781170
    28    1253.766    A        1.401587    0.090201
    29    1322.917    A        1.790480    0.137023
    30    1376.443    A        1.277306    0.663174
    31    1391.000    A        1.718111    0.078912
    32    1459.844    A        1.166081    2.740829
    33    1473.293    A        1.231427    0.046477
    34    1486.067    A        1.332067    0.053803
    35    1504.924    A        1.393559    0.063294
    36    1532.086    A        1.104478    0.594752
    37    1544.039    A        1.087665    0.044197
    38    1621.920    A        1.797645    0.063033
    39    1626.751    A        1.889036    0.017762
    40    1635.404    A        1.791335    0.080251
    41    1709.002    A        1.301250    0.025565
    42    1775.959    A        1.996814    0.203496
    43    1796.879    A        1.095485    0.026713
    44    1800.553    A        1.072035    0.086480
    45    1812.300    A        1.395293    0.029116
    46    1817.844    A        1.125643    0.003596
    47    1833.864    A        1.122324    0.011813
    48    2893.276    A        1.058810    0.807887
    49    3159.977    A        1.063588    0.453041
    50    3310.873    A        1.133962    0.474596
    51    3573.612    A        1.038917    0.010989
    52    3607.365    A        1.067387    0.084080
    53    3611.169    A        1.066835    0.012565
    54    3633.547    A        1.068433    0.015625
    55    3730.238    A        1.110440    0.015702
    56    3732.562    A        1.110604    0.007930
    57    3739.334    A        1.097413    0.167640
    58    3746.254    A        1.107856    0.031794
    59    3751.940    A        1.111339    0.006236
    60    3771.738    A        1.110622    0.036751

     -------------------------------
     THERMOCHEMISTRY AT T=  298.15 K
     -------------------------------

 USING IDEAL GAS, RIGID ROTOR, HARMONIC NORMAL MODE APPROXIMATIONS.
 P=  1.01325E+05 PASCAL.
 ALL FREQUENCIES ARE SCALED BY   1.00000
 THE MOMENTS OF INERTIA ARE (IN AMU*BOHR**2)
            462.51857           740.96880           909.39501
 THE ROTATIONAL SYMMETRY NUMBER IS  1.0
 THE ROTATIONAL CONSTANTS ARE (IN GHZ)
      3.89841     2.43342     1.98273
   1 IMAGINARY FREQUENCY VIBRATION(S) IS(ARE) EXCLUDED
     FROM THE FOLLOWING THERMOCHEMICAL ANALYSIS.
      8 -     60 VIBRATIONAL MODES ARE USED IN THERMOCHEMISTRY.
 THE HARMONIC ZERO POINT ENERGY IS (SCALED BY   1.000)
        0.212269 HARTREE/MOLECULE    46587.572232 CM**-1/MOLECULE 
      133.200687 KCAL/MOL              557.311673 KJ/MOL

               Q               LN Q
 ELEC.     1.00000E+00       0.000000
 TRANS.    3.70351E+07      17.427377
 ROT.      1.99840E+05      12.205272
 VIB.      8.34023E+00       2.121091
 TOT.      6.17268E+13      31.753740

              E         H         G         CV        CP        S
           KJ/MOL    KJ/MOL    KJ/MOL   J/MOL-K   J/MOL-K   J/MOL-K
 ELEC.      0.000     0.000     0.000     0.000     0.000     0.000
 TRANS.     3.718     6.197   -43.201    12.472    20.786   165.684
 ROT.       3.718     3.718   -30.256    12.472    12.472   113.951
 VIB.     566.676   566.676   552.054    76.348    76.348    49.043
 TOTAL    574.113   576.591   478.596   101.291   109.605   328.678
 VIB. THERMAL CORRECTION E(T)-E(0) = H(T)-H(0) =      9364.008 J/MOL

              E         H         G         CV        CP        S
         KCAL/MOL  KCAL/MOL  KCAL/MOL CAL/MOL-K CAL/MOL-K CAL/MOL-K
 ELEC.      0.000     0.000     0.000     0.000     0.000     0.000
 TRANS.     0.889     1.481   -10.325     2.981     4.968    39.600
 ROT.       0.889     0.889    -7.231     2.981     2.981    27.235
 VIB.     135.439   135.439   131.944    18.248    18.248    11.721
 TOTAL    137.216   137.809   114.387    24.209    26.196    78.556
 VIB. THERMAL CORRECTION E(T)-E(0) = H(T)-H(0) =      2238.052 CAL/MOL
 ......END OF NORMAL COORDINATE ANALYSIS......
 STEP CPU TIME =     0.01 TOTAL CPU TIME =         75.1 (      1.3 MIN)
 TOTAL WALL CLOCK TIME=         75.3 SECONDS, CPU UTILIZATION IS    99.76%
               580000  WORDS OF DYNAMIC MEMORY USED
 EXECUTION OF GAMESS TERMINATED NORMALLY Mon Nov 15 06:19:20 2021
 DDI: 263640 bytes (0.3 MB / 0 MWords) used by master data server.

 ----------------------------------------
 CPU timing information for all processes
 ========================================
 0: 73.918 + 1.233 = 75.152
 ----------------------------------------
 ddikick.x: exited gracefully.
----- accounting info -----
Files used on the master node chemcompute-node-0.novalocal were:
-rw-r--r--. 1 chemcomp chemcomp     1553 Nov 15 06:18 /scratch/306696/342710.F05
-rw-rw-r--. 1 chemcomp chemcomp  7920704 Nov 15 06:19 /scratch/306696/342710.F08
-rw-rw-r--. 1 chemcomp chemcomp 85196800 Nov 15 06:19 /scratch/306696/342710.F10
-rw-rw-r--. 1 chemcomp chemcomp   564960 Nov 15 06:19 /scratch/306696/342710.F18
Mon Nov 15 06:19:23 UTC 2021
0.165u 0.097s 1:18.96 0.3%	0+0k 8+224io 0pf+0w
Finishing Up...
Looking for IR data...
Looking for Raman data...
vibramans not found
Looking for thermodynamics data...
Looking for UV-Vis data...
306696
