----- GAMESS execution script 'rungms' -----
This job is running on host chemcompute-node-0.novalocal
under operating system Linux at Mon Nov 15 06:13:12 UTC 2021
SLURM has assigned the following compute nodes to this run:
chemcompute-node-0
Available scratch disk space (Kbyte units) at beginning of the job is
Filesystem     1K-blocks     Used Available Use% Mounted on
/dev/sda1       62903276 16583940  46319336  27% /
GAMESS temporary binary files will be written to /scratch/306695
GAMESS supplementary output files will be written to /data/slurm/342709
Copying input file 342709.inp to your run's scratch directory...
The generated host list is
chemcompute-node-0.novalocal

 Distributed Data Interface kickoff program.
 Initiating 1 compute processes on 1 nodes to run the following command:
 /data/gamess-2019R1-ddi/gamess.00.x 342709 

          ******************************************************
          *         GAMESS VERSION = 30 JUN 2019 (R1)          *
          *             FROM IOWA STATE UNIVERSITY             *
          * M.W.SCHMIDT, K.K.BALDRIDGE, J.A.BOATZ, S.T.ELBERT, *
          *   M.S.GORDON, J.H.JENSEN, S.KOSEKI, N.MATSUNAGA,   *
          *          K.A.NGUYEN, S.J.SU, T.L.WINDUS,           *
          *       TOGETHER WITH M.DUPUIS, J.A.MONTGOMERY       *
          *         J.COMPUT.CHEM.  14, 1347-1363(1993)        *
          **************** 64 BIT LINUX VERSION ****************

  SINCE 1993, STUDENTS AND POSTDOCS WORKING AT IOWA STATE UNIVERSITY
  AND ALSO IN THEIR VARIOUS JOBS AFTER LEAVING ISU HAVE MADE IMPORTANT
  CONTRIBUTIONS TO THE CODE:
     IVANA ADAMOVIC, CHRISTINE AIKENS, YURI ALEXEEV, POOJA ARORA,
     ANDREY ASADCHEV, ROB BELL, PRADIPTA BANDYOPADHYAY, JONATHAN BENTZ,
     COLLEEN BERTONI, BRETT BODE, KURT BRORSEN, CALEB CARLIN, GALINA CHABAN,
     WEI CHEN, CHEOL HO CHOI, PAUL DAY, ALBERT DEFUSCO, NUWAN DESILVA,
     TIM DUDLEY, DMITRI FEDOROV, ALEX FINDLATER, GRAHAM FLETCHER, 
     MARK FREITAG, KURT GLAESEMANN, ANASTASIA GUNINA,
     DAN KEMP, GRANT MERRILL, NORIYUKI MINEZAWA, JONATHAN MULLIN,
     TAKESHI NAGATA, SEAN NEDD, HEATHER NETZLOFF, BOSILJKA NJEGIC, RYAN OLSON,
     MIKE PAK, BUU PHAM,
     SPENCER PRUITT, LUKE ROSKOP, JIM SHOEMAKER, LYUDMILA SLIPCHENKO,
     TONY SMITH, SAROM SOK LEANG, JIE SONG, TETSUYA TAKETSUGU, SIMON WEBB,
     PENG XU, SOOHAENG YOO, FEDERICO ZAHARIEV

  ADDITIONAL CODE HAS BEEN PROVIDED BY COLLABORATORS IN OTHER GROUPS:
     IOWA STATE UNIVERSITY:
          JOE IVANIC, AARON WEST, LAIMUTIS BYTAUTAS, KLAUS RUEDENBERG
     UNIVERSITY OF TOKYO: KIMIHIKO HIRAO, TAKAHITO NAKAJIMA,
          TAKAO TSUNEDA, MUNEAKI KAMIYA, SUSUMU YANAGISAWA,
          KIYOSHI YAGI, MAHITO CHIBA, SEIKEN TOKURA, NAOAKI KAWAKAMI
     UNIVERSITY OF AARHUS: FRANK JENSEN
     UNIVERSITY OF IOWA: VISVALDAS KAIRYS, HUI LI
     NATIONAL INST. OF STANDARDS AND TECHNOLOGY: WALT STEVENS, DAVID GARMER
     UNIVERSITY OF PISA: BENEDETTA MENNUCCI, JACOPO TOMASI
     UNIVERSITY OF MEMPHIS: HENRY KURTZ, PRAKASHAN KORAMBATH
     UNIVERSITY OF ALBERTA: TOBY ZENG, MARIUSZ KLOBUKOWSKI
     UNIVERSITY OF NEW ENGLAND: MARK SPACKMAN
     MIE UNIVERSITY: HIROAKI UMEDA
     NAT. INST. OF ADVANCED INDUSTRIAL SCIENCE AND TECHNOLOGY: KAZUO KITAURA
     MICHIGAN STATE UNIVERSITY:
          KAROL KOWALSKI, MARTA WLOCH, JEFFREY GOUR, JESSE LUTZ,
          WEI LI, JUN SHEN, J. EMILIANO DEUSTUA, PIOTR PIECUCH
     UNIVERSITY OF MINNESOTA:
          YINAN SHU
     UNIVERSITY OF SILESIA: MONIKA MUSIAL, STANISLAW KUCHARSKI
     FACULTES UNIVERSITAIRES NOTRE-DAME DE LA PAIX:
          OLIVIER QUINET, BENOIT CHAMPAGNE
     UNIVERSITY OF CALIFORNIA - SANTA BARBARA: BERNARD KIRTMAN
     INSTITUTE FOR MOLECULAR SCIENCE:
          KAZUYA ISHIMURA, MICHIO KATOUDA, AND SHIGERU NAGASE
     UNIVERSITY OF NOTRE DAME: ANNA POMOGAEVA, DAN CHIPMAN
     KYUSHU UNIVERSITY:
          HARUYUKI NAKANO,
          FENG LONG GU, JACEK KORCHOWIEC, MARCIN MAKOWSKI, AND YURIKO AOKI,
          HIROTOSHI MORI AND EISAKU MIYOSHI
     PENNSYLVANIA STATE UNIVERSITY:
          TZVETELIN IORDANOV, CHET SWALINA, JONATHAN SKONE,
          SHARON HAMMES-SCHIFFER
     WASEDA UNIVERSITY:
          MASATO KOBAYASHI, TOMOKO AKAMA, TSUGUKI TOUMA,
          TAKESHI YOSHIKAWA, YASUHIRO IKABATA, JUNJI SEINO,
          YUYA NAKAJIMA, HIROMI NAKAI
     NANJING UNIVERSITY: SHUHUA LI
     UNIVERSITY OF NEBRASKA:
          PEIFENG SU, DEJUN SI, NANDUN THELLAMUREGE, YALI WANG, HUI LI
     UNIVERSITY OF ZURICH: ROBERTO PEVERATI, KIM BALDRIDGE
     N. COPERNICUS UNIVERSITY AND JACKSON STATE UNIVERSITY:
          MARIA BARYSZ
     UNIVERSITY OF COPENHAGEN: Jimmy Kromann, CASPER STEINMANN
     TOKYO INSTITUTE OF TECHNOLOGY: HIROYA NAKATA
     NAGOYA UNIVERSITY: YOSHIO NISHIMOTO, STEPHAN IRLE
     MOSCOW STATE UNIVERSITY: VLADIMIR MIRONOV
     A.N.NESMEYANOV INSTITUTE OF ORGANOELEMENT COMPOUNDS OF RUSSIAN ACADEMY OF SCIENCES:
          IGOR S. GERASIMOV

 EXECUTION OF GAMESS BEGUN Mon Nov 15 06:13:13 2021

            ECHO OF THE FIRST FEW INPUT CARDS -
 INPUT CARD>!File created by the GAMESS Input Deck Generator Plugin for Avogadro            
 INPUT CARD> $BASIS GBASIS=STO NGAUSS=3 $END                                                
 INPUT CARD> $CONTRL SCFTYP=RHF RUNTYP=OPTIMIZE NZVAR=1 mult=1  ICHARG=0 $END               
 INPUT CARD> $STATPT hssend=.t. OPTTOL=0.0005 NSTEP=50 $END                                 
 INPUT CARD> $STATPT HESS=calc ihrep=5 $END                                                 
 INPUT CARD> $FORCE nvib=2 $END                                                             
 INPUT CARD> $ZMAT DLC=.t. auto=.t. nonvdw(1)=3,17,17,20,2,20 $END                          
 INPUT CARD> $ZMAT IFZMAT(1)=1,3,17,1,17,20,1,2,20 fvalue(1)=2.08,1.98,2.01 $END            
 INPUT CARD>                                                                                
 INPUT CARD> $DATA                                                                          
 INPUT CARD>Title                                                                           
 INPUT CARD>C1                                                                              
 INPUT CARD>C     6.0     0.98286     0.03710    -0.06738                                   
 INPUT CARD>C     6.0     2.48823     0.04663    -0.03822                                   
 INPUT CARD>C     6.0     3.25788    -1.07590     0.01163                                   
 INPUT CARD>C     6.0     4.65952    -0.68270    -0.42730                                   
 INPUT CARD>C     6.0     4.72585     0.77445     0.00476                                   
 INPUT CARD>C     6.0     3.31355     1.28397    -0.25755                                   
 INPUT CARD>H     1.0     0.58763    -0.99418     0.05083                                   
 INPUT CARD>H     1.0     0.63087     0.44563    -1.03730                                   
 INPUT CARD>H     1.0     0.58227     0.66877     0.75247                                   
 INPUT CARD>H     1.0     2.78198    -2.06465    -0.14811                                   
 INPUT CARD>H     1.0     4.69258    -0.74484    -1.53769                                   
 INPUT CARD>H     1.0     5.48006    -1.29758    -0.00007                                   
 INPUT CARD>H     1.0     5.54208     1.38081    -0.44147                                   
 INPUT CARD>H     1.0     4.87317     0.77227     1.10879                                   
 INPUT CARD>H     1.0     3.17297     1.58987    -1.31682                                   
 INPUT CARD>H     1.0     3.07252     2.12971     0.42136                                   
 INPUT CARD>B     5.0     3.46771    -1.55109     2.02507                                   
 INPUT CARD>H     1.0     4.57533    -1.55458     2.44231                                   
 INPUT CARD>H     1.0     2.80846    -2.49223     2.31103                                   
 INPUT CARD>H     1.0     2.53946     0.20036     1.96316                                   
 INPUT CARD> $END                                                                           
    1000000 WORDS OF MEMORY AVAILABLE

     BASIS OPTIONS
     -------------
     GBASIS=STO          IGAUSS=       3      POLAR=NONE    
     NDFUNC=       0     NFFUNC=       0     DIFFSP=       F
     NPFUNC=       0      DIFFS=       F     BASNAM=        


     RUN TITLE
     ---------
 Title                                                                           

 THE POINT GROUP OF THE MOLECULE IS C1      
 THE ORDER OF THE PRINCIPAL AXIS IS     0

 ATOM      ATOMIC                      COORDINATES (BOHR)
           CHARGE         X                   Y                   Z
 C           6.0     1.8573360843        0.0701088341       -0.1273297371
 C           6.0     4.7020728944        0.0881179228       -0.0722253273
 C           6.0     6.1565005009       -2.0331561902        0.0219775132
 C           6.0     8.8052160343       -1.2901159318       -0.8074799146
 C           6.0     8.9305615591        1.4634982912        0.0089950957
 C           6.0     6.2617015466        2.4263514765       -0.4866989281
 H           1.0     1.1104596822       -1.8787277825        0.0960547720
 H           1.0     1.1921714339        0.8421185919       -1.9602127671
 H           1.0     1.1003307509        1.2637920488        1.4219621140
 H           1.0     5.2571799033       -3.9016227605       -0.2798873160
 H           1.0     8.8676903755       -1.4075435047       -2.9058127541
 H           1.0    10.3558117963       -2.4520706471       -0.0001322808
 H           1.0    10.4730126020        2.6093525411       -0.8342573318
 H           1.0     9.2089559916        1.4593786885        2.0953092779
 H           1.0     5.9960438673        3.0044186561       -2.4884289752
 H           1.0     5.8062208918        4.0245683333        0.7962549422
 B           5.0     6.5530217049       -2.9311350823        3.8268274060
 H           1.0     8.6461200034       -2.9377302260        4.6152966771
 H           1.0     5.3072198475       -4.7096317984        4.3672134494
 H           1.0     4.7988835568        0.3786254989        3.7098344701

          INTERNUCLEAR DISTANCES (ANGS.)
          ------------------------------

                1 C          2 C          3 C          4 C          5 C     

   1 C       0.0000000    1.5056826 *  2.5339155 *  3.7637060    3.8156079  
   2 C       1.5056826 *  0.0000000    1.3619544 *  2.3233178 *  2.3534044 *
   3 C       2.5339155 *  1.3619544 *  0.0000000    1.5204803 *  2.3619437 *
   4 C       3.7637060    2.3233178 *  1.5204803 *  0.0000000    1.5213026 *
   5 C       3.8156079    2.3534044 *  2.3619437 *  1.5213026 *  0.0000000  
   6 C       2.6500878 *  1.5034191 *  2.3758248 *  2.3891926 *  1.5241419 *
   7 H       1.1107289 *  2.1687544 *  2.6717878 *  4.1116805    4.5005599  
   8 H       1.1097471 *  2.1464268 *  3.2119292    4.2279131    4.2382630  
   9 H       1.1097898 *  2.1552105 *  3.2789642    4.4544692    4.2118278  
  10 H       2.7677975 *  2.1344480 *  1.1088842 *  2.3479543 *  3.4441964  
  11 H       4.0663576    2.7810059 *  2.1373716 *  1.1126187 *  2.1652947 *
  12 H       4.6915572    3.2801528    2.2332404 *  1.1108055 *  2.2050316 *
  13 H       4.7678073    3.3568805    3.3850101    2.2443677 *  1.1104166 *
  14 H       4.1301771    2.7441072 *  2.6886157 *  2.1265363 *  1.1138178 *
  15 H       2.9612120 *  2.1178471 *  2.9796508 *  2.8575603 *  2.1961147 *
  16 H       2.9974259 *  2.2117484 *  3.2370005    3.3389284    2.1780233 *
  17 B       3.6159610    2.7873385 *  2.0793688 *  2.8615784 *  3.3275674  
  18 H       4.6623846    3.6156450    2.8058892 *  3.0003207    3.3747129  
  19 H       3.9226470    3.4738067    2.7377380 *  3.7681923    4.4346887  
  20 H       2.5637375 *  2.0079291 *  2.4399664 *  3.3149281    2.9908546 *

                6 C          7 H          8 H          9 H         10 H     

   1 C       2.6500878 *  1.1107289 *  1.1097471 *  1.1097898 *  2.7677975 *
   2 C       1.5034191 *  2.1687544 *  2.1464268 *  2.1552105 *  2.1344480 *
   3 C       2.3758248 *  2.6717878 *  3.2119292    3.2789642    1.1088842 *
   4 C       2.3891926 *  4.1116805    4.2279131    4.4544692    2.3479543 *
   5 C       1.5241419 *  4.5005599    4.2382630    4.2118278    3.4441964  
   6 C       0.0000000    3.5659088    2.9167784 *  2.9763236 *  3.3923148  
   7 H       3.5659088    0.0000000    1.8052561 *  1.8049183 *  2.4496235 *
   8 H       2.9167784 *  1.8052561 *  0.0000000    1.8042810 *  3.4233666  
   9 H       2.9763236 *  1.8049183 *  1.8042810 *  0.0000000    3.6223409  
  10 H       3.3923148    2.4496235 *  3.4233666    3.6223409    0.0000000  
  11 H       2.7670476 *  4.4086484    4.2620532    4.9130209    2.7061455 *
  12 H       3.3800092    4.9020928    5.2563553    5.3311533    2.8089051 *
  13 H       2.2382025 *  5.5162951    5.0348345    5.1509425    4.4244103  
  14 H       2.1356817 *  4.7545219    4.7654491    4.3069129    3.7417895  
  15 H       1.1114812 *  3.9027892    2.8017296 *  3.4412371    3.8567179  
  16 H       1.1109862 *  4.0088227    3.3053697    2.9060841 *  4.2428016  
  17 B       3.6430323    3.5359063    4.6273818    3.8565598    2.3359539 *
  18 H       4.1156651    4.6834791    5.6273698    4.8727172    3.1916377  
  19 H       4.5948238    3.5049599    4.9582490    4.1685672    2.4961762 *
  20 H       2.5893974 *  2.9822093 *  3.5644962    2.3485678 *  3.1058891  

               11 H         12 H         13 H         14 H         15 H     

   1 C       4.0663576    4.6915572    4.7678073    4.1301771    2.9612120 *
   2 C       2.7810059 *  3.2801528    3.3568805    2.7441072 *  2.1178471 *
   3 C       2.1373716 *  2.2332404 *  3.3850101    2.6886157 *  2.9796508 *
   4 C       1.1126187 *  1.1108055 *  2.2443677 *  2.1265363 *  2.8575603 *
   5 C       2.1652947 *  2.2050316 *  1.1104166 *  1.1138178 *  2.1961147 *
   6 C       2.7670476 *  3.3800092    2.2382025 *  2.1356817 *  1.1114812 *
   7 H       4.4086484    4.9020928    5.5162951    4.7545219    3.9027892  
   8 H       4.2620532    5.2563553    5.0348345    4.7654491    2.8017296 *
   9 H       4.9130209    5.3311533    5.1509425    4.3069129    3.4412371  
  10 H       2.7061455 *  2.8089051 *  4.4244103    3.7417895    3.8567179  
  11 H       0.0000000    1.8138141 *  2.5380576 *  3.0558292    2.7944353 *
  12 H       1.8138141 *  0.0000000    2.7152262 *  2.4253175 *  3.9235013  
  13 H       2.5380576 *  2.7152262 *  0.0000000    1.7947333 *  2.5342900 *
  14 H       3.0558292    2.4253175 *  1.7947333 *  0.0000000    3.0729031  
  15 H       2.7944353 *  3.9235013    2.5342900 *  3.0729031    0.0000000  
  16 H       3.8373831    4.2095331    2.7210390 *  2.3574443 *  1.8228514 *
  17 B       3.8527399    2.8661842 *  4.3569333    2.8658138 *  4.5957296  
  18 H       4.0632286    2.6172133 *  4.2269738    2.6983727 *  5.0975717  
  19 H       4.6277344    3.7290506    5.4817309    4.0454133    5.4733631  
  20 H       4.2172597    3.8399511    4.0238582    2.5501434 *  3.6180577  

               16 H         17 B         18 H         19 H         20 H     

   1 C       2.9974259 *  3.6159610    4.6623846    3.9226470    2.5637375 *
   2 C       2.2117484 *  2.7873385 *  3.6156450    3.4738067    2.0079291 *
   3 C       3.2370005    2.0793688 *  2.8058892 *  2.7377380 *  2.4399664 *
   4 C       3.3389284    2.8615784 *  3.0003207    3.7681923    3.3149281  
   5 C       2.1780233 *  3.3275674    3.3747129    4.4346887    2.9908546 *
   6 C       1.1109862 *  3.6430323    4.1156651    4.5948238    2.5893974 *
   7 H       4.0088227    3.5359063    4.6834791    3.5049599    2.9822093 *
   8 H       3.3053697    4.6273818    5.6273698    4.9582490    3.5644962  
   9 H       2.9060841 *  3.8565598    4.8727172    4.1685672    2.3485678 *
  10 H       4.2428016    2.3359539 *  3.1916377    2.4961762 *  3.1058891  
  11 H       3.8373831    3.8527399    4.0632286    4.6277344    4.2172597  
  12 H       4.2095331    2.8661842 *  2.6172133 *  3.7290506    3.8399511  
  13 H       2.7210390 *  4.3569333    4.2269738    5.4817309    4.0238582  
  14 H       2.3574443 *  2.8658138 *  2.6983727 *  4.0454133    2.5501434 *
  15 H       1.8228514 *  4.5957296    5.0975717    5.4733631    3.6180577  
  16 H       0.0000000    4.0343958    4.4628096    5.0002910    2.5265968 *
  17 B       4.0343958    0.0000000    1.1836061 *  1.1841149 *  1.9831939 *
  18 H       4.4628096    1.1836061 *  0.0000000    2.0045577 *  2.7302318 *
  19 H       5.0002910    1.1841149 *  2.0045577 *  0.0000000    2.7282623 *
  20 H       2.5265968 *  1.9831939 *  2.7302318 *  2.7282623 *  0.0000000  

  * ... LESS THAN  3.000


     ATOMIC BASIS SET
     ----------------
 THE CONTRACTED PRIMITIVE FUNCTIONS HAVE BEEN UNNORMALIZED
 THE CONTRACTED BASIS FUNCTIONS ARE NOW NORMALIZED TO UNITY

  SHELL TYPE  PRIMITIVE        EXPONENT          CONTRACTION COEFFICIENT(S)

 C         

      1   S       1            71.6168373    0.154328967295
      1   S       2            13.0450963    0.535328142282
      1   S       3             3.5305122    0.444634542185

      2   L       4             2.9412494   -0.099967229187    0.155916274999
      2   L       5             0.6834831    0.399512826089    0.607683718598
      2   L       6             0.2222899    0.700115468880    0.391957393099

 C         

      3   S       7            71.6168373    0.154328967295
      3   S       8            13.0450963    0.535328142282
      3   S       9             3.5305122    0.444634542185

      4   L      10             2.9412494   -0.099967229187    0.155916274999
      4   L      11             0.6834831    0.399512826089    0.607683718598
      4   L      12             0.2222899    0.700115468880    0.391957393099

 C         

      5   S      13            71.6168373    0.154328967295
      5   S      14            13.0450963    0.535328142282
      5   S      15             3.5305122    0.444634542185

      6   L      16             2.9412494   -0.099967229187    0.155916274999
      6   L      17             0.6834831    0.399512826089    0.607683718598
      6   L      18             0.2222899    0.700115468880    0.391957393099

 C         

      7   S      19            71.6168373    0.154328967295
      7   S      20            13.0450963    0.535328142282
      7   S      21             3.5305122    0.444634542185

      8   L      22             2.9412494   -0.099967229187    0.155916274999
      8   L      23             0.6834831    0.399512826089    0.607683718598
      8   L      24             0.2222899    0.700115468880    0.391957393099

 C         

      9   S      25            71.6168373    0.154328967295
      9   S      26            13.0450963    0.535328142282
      9   S      27             3.5305122    0.444634542185

     10   L      28             2.9412494   -0.099967229187    0.155916274999
     10   L      29             0.6834831    0.399512826089    0.607683718598
     10   L      30             0.2222899    0.700115468880    0.391957393099

 C         

     11   S      31            71.6168373    0.154328967295
     11   S      32            13.0450963    0.535328142282
     11   S      33             3.5305122    0.444634542185

     12   L      34             2.9412494   -0.099967229187    0.155916274999
     12   L      35             0.6834831    0.399512826089    0.607683718598
     12   L      36             0.2222899    0.700115468880    0.391957393099

 H         

     13   S      37             3.4252509    0.154328967295
     13   S      38             0.6239137    0.535328142282
     13   S      39             0.1688554    0.444634542185

 H         

     14   S      40             3.4252509    0.154328967295
     14   S      41             0.6239137    0.535328142282
     14   S      42             0.1688554    0.444634542185

 H         

     15   S      43             3.4252509    0.154328967295
     15   S      44             0.6239137    0.535328142282
     15   S      45             0.1688554    0.444634542185

 H         

     16   S      46             3.4252509    0.154328967295
     16   S      47             0.6239137    0.535328142282
     16   S      48             0.1688554    0.444634542185

 H         

     17   S      49             3.4252509    0.154328967295
     17   S      50             0.6239137    0.535328142282
     17   S      51             0.1688554    0.444634542185

 H         

     18   S      52             3.4252509    0.154328967295
     18   S      53             0.6239137    0.535328142282
     18   S      54             0.1688554    0.444634542185

 H         

     19   S      55             3.4252509    0.154328967295
     19   S      56             0.6239137    0.535328142282
     19   S      57             0.1688554    0.444634542185

 H         

     20   S      58             3.4252509    0.154328967295
     20   S      59             0.6239137    0.535328142282
     20   S      60             0.1688554    0.444634542185

 H         

     21   S      61             3.4252509    0.154328967295
     21   S      62             0.6239137    0.535328142282
     21   S      63             0.1688554    0.444634542185

 H         

     22   S      64             3.4252509    0.154328967295
     22   S      65             0.6239137    0.535328142282
     22   S      66             0.1688554    0.444634542185

 B         

     23   S      67            48.7911132    0.154328967295
     23   S      68             8.8873622    0.535328142282
     23   S      69             2.4052670    0.444634542185

     24   L      70             2.2369561   -0.099967229187    0.155916274999
     24   L      71             0.5198205    0.399512826089    0.607683718598
     24   L      72             0.1690618    0.700115468880    0.391957393099

 H         

     25   S      73             3.4252509    0.154328967295
     25   S      74             0.6239137    0.535328142282
     25   S      75             0.1688554    0.444634542185

 H         

     26   S      76             3.4252509    0.154328967295
     26   S      77             0.6239137    0.535328142282
     26   S      78             0.1688554    0.444634542185

 H         

     27   S      79             3.4252509    0.154328967295
     27   S      80             0.6239137    0.535328142282
     27   S      81             0.1688554    0.444634542185

 TOTAL NUMBER OF BASIS SET SHELLS             =   27
 NUMBER OF CARTESIAN GAUSSIAN BASIS FUNCTIONS =   48
 NUMBER OF ELECTRONS                          =   54
 CHARGE OF MOLECULE                           =    0
 SPIN MULTIPLICITY                            =    1
 NUMBER OF OCCUPIED ORBITALS (ALPHA)          =   27
 NUMBER OF OCCUPIED ORBITALS (BETA )          =   27
 TOTAL NUMBER OF ATOMS                        =   20
 THE NUCLEAR REPULSION ENERGY IS      302.7349953987

     $CONTRL OPTIONS
     ---------------
 SCFTYP=RHF          RUNTYP=OPTIMIZE     EXETYP=RUN     
 MPLEVL=       0     CITYP =NONE         CCTYP =NONE         VBTYP =NONE    
 DFTTYP=NONE         TDDFT =NONE    
 MULT  =       1     ICHARG=       0     NZVAR =       1     COORD =UNIQUE  
 PP    =NONE         RELWFN=NONE         LOCAL =NONE         NUMGRD=       F
 ISPHER=      -1     NOSYM =       0     MAXIT =      30     UNITS =ANGS    
 PLTORB=       F     MOLPLT=       F     AIMPAC=       F     FRIEND=        
 NPRINT=       7     IREST =       0     GEOM  =INPUT   
 NORMF =       0     NORMP =       0     ITOL  =      20     ICUT  =       9
 INTTYP=BEST         GRDTYP=BEST         QMTTOL= 1.0E-06

     $SYSTEM OPTIONS
     ---------------
  REPLICATED MEMORY=     1000000 WORDS (ON EVERY NODE).
 DISTRIBUTED MEMDDI=           0 MILLION WORDS IN AGGREGATE,
 MEMDDI DISTRIBUTED OVER   1 PROCESSORS IS           0 WORDS/PROCESSOR.
 TOTAL MEMORY REQUESTED ON EACH PROCESSOR=     1000000 WORDS.
 TIMLIM=      525600.00 MINUTES, OR     365.0 DAYS.
 PARALL= F  BALTYP=  DLB     KDIAG=    0  COREFL= F
 MXSEQ2=     300 MXSEQ3=     150  mem10=         0

          ----------------
          PROPERTIES INPUT
          ----------------

     MOMENTS            FIELD           POTENTIAL          DENSITY
 IEMOM =       1   IEFLD =       0   IEPOT =       0   IEDEN =       0
 WHERE =COMASS     WHERE =NUCLEI     WHERE =NUCLEI     WHERE =NUCLEI  
 OUTPUT=BOTH       OUTPUT=BOTH       OUTPUT=BOTH       OUTPUT=BOTH    
 IEMINT=       0   IEFINT=       0                     IEDINT=       0
                                                       MORB  =       0
          EXTRAPOLATION IN EFFECT
          SOSCF IN EFFECT
 ORBITAL PRINTING OPTION: NPREO=     1    48     2     1

     -------------------------------
     INTEGRAL TRANSFORMATION OPTIONS
     -------------------------------
     NWORD  =            0
     CUTOFF = 1.0E-09     MPTRAN =       0
     DIRTRF =       F     AOINTS =DUP     

          ----------------------
          INTEGRAL INPUT OPTIONS
          ----------------------
 NOPK  =       1 NORDER=       0 SCHWRZ=       T


 -----------------------------------------------
  STATISTICS ON AUTOMATIC COORDINATE GENERATION 
 -----------------------------------------------
  NUMBER OF USER SPECIFIED BONDS                             3
  NUMBER OF BONDS                                           21
  NUMBER OF ANGLES                                          43
  NUMBER OF TORSIONS                                        69
  NUMBER OF EXTRA COORD.                                     0
  NUMBER OF EXTRA COORD. FOR CONSTRAINTS                     0
  NUMBER OF CONSTRAINED COORD.                               3

  TOTAL NUMBER OF PRIMITIVES                               133
 -----------------------------------------------

   --- ENCODED Z MATRIX ---
 COORD  TYPE   I   J   K   L   M   N
    1      1    2  20
    2      1    3  17
    3      1   17  20
    4      1    1   7
    5      1    1   2
    6      1    1   9
    7      1    1   8
    8      1    2   3
    9      1    2   6
   10      1    3   4
   11      1    3  10
   12      1    4  12
   13      1    4  11
   14      1    4   5
   15      1    5  14
   16      1    5  13
   17      1    5   6
   18      1    6  15
   19      1    6  16
   20      1   17  19
   21      1   17  18
   22      2    1   2   3
   23      2    1   2   6
   24      2    1   2  20
   25      2    2   3  10
   26      2    2   6  16
   27      2    2   3   4
   28      2    2  20  17
   29      2    2   1   8
   30      2    2   3  17
   31      2    2   1   9
   32      2    2   6   5
   33      2    2   1   7
   34      2    2   6  15
   35      2    3  17  18
   36      2    3  17  20
   37      2    3   2   6
   38      2    3   4   5
   39      2    3   4  12
   40      2    3   2  20
   41      2    3  17  19
   42      2    3   4  11
   43      2    4   3  17
   44      2    4   3  10
   45      2    4   5   6
   46      2    4   5  13
   47      2    4   5  14
   48      2    5   4  11
   49      2    5   4  12
   50      2    5   6  16
   51      2    5   6  15
   52      2    6   2  20
   53      2    6   5  13
   54      2    6   5  14
   55      2    7   1   8
   56      2    7   1   9
   57      2    8   1   9
   58      2   10   3  17
   59      2   11   4  12
   60      2   13   5  14
   61      2   15   6  16
   62      2   18  17  19
   63      2   18  17  20
   64      2   19  17  20
   65      3    1   2   3  17
   66      3    1   2   6  16
   67      3    1   2   6  15
   68      3    1   2   6   5
   69      3    1   2   3  10
   70      3    1   2   3   4
   71      3    1   2  20  17
   72      3    2   3   4   5
   73      3    2   3   4  11
   74      3    2   3   4  12
   75      3    2   6   5  13
   76      3    2   6   5  14
   77      3    2   6   5   4
   78      3    2   3  17  18
   79      3    2   3  17  19
   80      3    2   3  17  20
   81      3    2  20  17  18
   82      3    2  20  17  19
   83      3    2  20  17   3
   84      3    3   2  20  17
   85      3    3   2   6  15
   86      3    3   2   1   8
   87      3    3   2   6   5
   88      3    3   2   6  16
   89      3    3   2   1   7
   90      3    3   4   5   6
   91      3    3   4   5  13
   92      3    3   4   5  14
   93      3    3   2   1   9
   94      3    4   3  17  18
   95      3    4   5   6  16
   96      3    4   5   6  15
   97      3    4   3   2   6
   98      3    4   3   2  20
   99      3    4   3  17  19
  100      3    4   3  17  20
  101      3    5   6   2  20
  102      3    5   4   3  17
  103      3    5   4   3  10
  104      3    6   2  20  17
  105      3    6   2   1   7
  106      3    6   5   4  11
  107      3    6   5   4  12
  108      3    6   2   3  17
  109      3    6   2   3  10
  110      3    6   2   1   8
  111      3    6   2   1   9
  112      3    7   1   2  20
  113      3    8   1   2  20
  114      3    9   1   2  20
  115      3   10   3  17  18
  116      3   10   3   4  11
  117      3   10   3  17  19
  118      3   10   3   4  12
  119      3   10   3   2  20
  120      3   10   3  17  20
  121      3   11   4   5  14
  122      3   11   4   5  13
  123      3   11   4   3  17
  124      3   12   4   5  14
  125      3   12   4   5  13
  126      3   12   4   3  17
  127      3   13   5   6  15
  128      3   13   5   6  16
  129      3   14   5   6  15
  130      3   14   5   6  16
  131      3   15   6   2  20
  132      3   16   6   2  20
  133      3   17   3   2  20

          INDEP./SYM. INTERNAL COORDINATES
          --------------------------------
 CRD  1=   1.0000 (  1)
 CRD  2=   1.0000 (  2)
 CRD  3=   1.0000 (  3)
 CRD  4=  -0.1208 (  8)  0.1415 (  9)  0.1939 ( 24) -0.1103 ( 27) -0.3218 ( 29)
           0.1532 ( 30)  0.3795 ( 31) -0.1039 ( 36)  0.1808 ( 38) -0.1180 ( 40)
          -0.1345 ( 42) -0.1517 ( 45)  0.1081 ( 54) -0.1718 ( 65)  0.1399 ( 66)
           0.1325 ( 67)  0.2213 ( 68) -0.1243 ( 69) -0.2193 ( 70)  0.1312 ( 74)
          -0.1218 ( 75) -0.1022 ( 76) -0.1146 ( 77) -0.1051 ( 97) -0.1824 (105)
           0.1051 (113) -0.1098 (131) -0.1024 (132)
 CRD  5=  -0.1042 (  8)  0.2288 (  9) -0.1229 ( 10) -0.1158 ( 13)  0.1464 ( 26)
           0.1388 ( 29)  0.1536 ( 30) -0.1051 ( 36)  0.1524 ( 38) -0.1350 ( 39)
          -0.1242 ( 40) -0.1246 ( 43)  0.1429 ( 47) -0.1376 ( 48) -0.1238 ( 50)
           0.1225 ( 51)  0.1524 ( 52) -0.1069 ( 54) -0.1059 ( 58) -0.1289 ( 68)
           0.1766 ( 70) -0.1429 ( 72) -0.1287 ( 81)  0.1507 ( 82) -0.1505 ( 87)
           0.1955 ( 97) -0.2192 (101) -0.2460 (102)  0.1074 (108)  0.1599 (112)
           0.1193 (113)  0.1073 (114) -0.1592 (123) -0.1522 (126) -0.1278 (131)
          -0.1160 (132)
 CRD  6=   0.3266 (  8)  0.2100 (  9)  0.1335 ( 14)  0.1010 ( 18)  0.1292 ( 19)
           0.1106 ( 26)  0.1066 ( 28)  0.1495 ( 29) -0.2861 ( 32) -0.1820 ( 33)
           0.1705 ( 34)  0.1629 ( 35)  0.1376 ( 37) -0.1395 ( 38) -0.1167 ( 40)
           0.1283 ( 41)  0.1176 ( 42)  0.3189 ( 45) -0.1091 ( 47)  0.1233 ( 49)
           0.1044 ( 50) -0.1643 ( 53)  0.1107 ( 60) -0.1423 ( 61) -0.1861 ( 62)
           0.1725 ( 81) -0.1351 ( 82) -0.1146 (104)
 CRD  7=  -0.1058 (  6)  0.2668 (  9) -0.3146 ( 10) -0.1864 ( 12) -0.2131 ( 14)
          -0.1205 ( 17)  0.1429 ( 29) -0.4306 ( 31)  0.2053 ( 33)  0.1144 ( 35)
           0.1988 ( 38) -0.1324 ( 39) -0.1284 ( 55)  0.1156 ( 57)  0.1078 ( 59)
          -0.1069 ( 62)  0.1061 ( 72)  0.1481 ( 78) -0.1383 ( 82) -0.1039 ( 90)
           0.1041 (102)  0.1206 (104)
 CRD  8=   0.1874 (  8)  0.1288 (  9) -0.2636 ( 10) -0.2068 ( 14)  0.1218 ( 17)
          -0.1218 ( 24)  0.1233 ( 25)  0.1314 ( 26) -0.3398 ( 29) -0.1117 ( 30)
           0.1771 ( 31) -0.1416 ( 32) -0.2301 ( 41) -0.1598 ( 44)  0.1469 ( 45)
          -0.1675 ( 46)  0.1003 ( 52)  0.1263 ( 55) -0.1003 ( 56)  0.1382 ( 62)
          -0.1126 ( 73) -0.1321 ( 75)  0.2116 ( 82)  0.1254 ( 94)  0.1554 ( 99)
           0.1287 (101)  0.1021 (108)  0.1018 (131)
 CRD  9=   0.1733 (  4) -0.1086 (  7)  0.2735 (  9)  0.1397 ( 10)  0.3632 ( 14)
           0.1074 ( 19) -0.3324 ( 29) -0.1856 ( 31)  0.5360 ( 33) -0.1523 ( 56)
           0.2185 ( 57) -0.1115 ( 71) -0.1019 (104)
 CRD 10=  -0.1300 ( 10)  0.2867 ( 14)  0.1793 ( 16)  0.5623 ( 17)  0.1194 ( 19)
           0.2189 ( 29) -0.1421 ( 31) -0.1328 ( 34) -0.1492 ( 42) -0.1610 ( 45)
           0.1308 ( 50)  0.1146 ( 51)  0.1365 ( 53)  0.1043 ( 54)  0.1070 ( 56)
          -0.1139 ( 60)  0.1044 ( 67) -0.1049 ( 77)  0.1038 ( 85)  0.1159 ( 92)
          -0.1070 ( 95) -0.1018 (122)  0.1203 (124)
 CRD 11=   0.1295 (  8) -0.1769 ( 10)  0.3681 ( 14) -0.3599 ( 17) -0.1147 ( 18)
           0.1023 ( 25)  0.1443 ( 29)  0.1043 ( 32) -0.1005 ( 33) -0.1513 ( 41)
          -0.2158 ( 42)  0.2338 ( 46)  0.1834 ( 48) -0.1001 ( 50) -0.1211 ( 51)
          -0.2240 ( 53)  0.1393 ( 62) -0.1640 ( 73)  0.1460 ( 82)  0.1839 ( 91)
          -0.1102 ( 96) -0.1351 (106) -0.1374 (121) -0.1146 (123)  0.1368 (125)
           0.1180 (128) -0.1160 (129)
 CRD 12=   0.1284 ( 10) -0.1345 ( 13) -0.2459 ( 14)  0.1104 ( 19)  0.1323 ( 29)
          -0.1861 ( 31) -0.1440 ( 35)  0.2226 ( 39) -0.1299 ( 41) -0.1167 ( 42)
           0.1094 ( 45) -0.2288 ( 47) -0.1906 ( 49)  0.1365 ( 50) -0.1362 ( 53)
           0.1871 ( 54) -0.1067 ( 55) -0.1276 ( 58)  0.1225 ( 62) -0.1085 ( 69)
          -0.1047 ( 74) -0.1092 ( 78) -0.1657 ( 81)  0.1962 ( 82)  0.1064 ( 87)
           0.1827 ( 92) -0.1239 ( 94) -0.1515 (107) -0.1177 (109) -0.1716 (126)
 CRD 13=  -0.1984 (  5)  0.1576 (  8)  0.1998 (  9)  0.1951 ( 10)  0.2521 ( 11)
           0.1219 ( 20) -0.1967 ( 21)  0.1076 ( 26) -0.1696 ( 33) -0.3263 ( 35)
           0.2830 ( 41) -0.1128 ( 49)  0.1001 ( 55) -0.1152 ( 74) -0.3559 ( 81)
          -0.3497 ( 82)
 CRD 14=   0.1571 (  6)  0.1756 (  9)  0.1576 ( 11)  0.1010 ( 15)  0.1323 ( 17)
           0.2319 ( 18) -0.1955 ( 26) -0.1143 ( 29)  0.1906 ( 31) -0.1413 ( 33)
           0.2409 ( 34) -0.1092 ( 45)  0.1750 ( 46) -0.1127 ( 47)  0.1668 ( 54)
           0.1551 ( 55) -0.1356 ( 66) -0.1314 ( 67) -0.1395 ( 68)  0.2102 ( 75)
           0.2121 ( 76)  0.1034 ( 77)  0.1009 ( 79) -0.1297 ( 90) -0.1349 ( 96)
           0.1019 (102)  0.1067 (103)  0.1212 (105)  0.1270 (112)
 CRD 15=   0.1025 (  9)  0.1982 ( 10)  0.5112 ( 11)  0.1528 ( 13)  0.1557 ( 15)
           0.1267 ( 19) -0.2031 ( 20)  0.1523 ( 21)  0.1021 ( 26)  0.1669 ( 35)
          -0.2661 ( 41)  0.1175 ( 47) -0.1070 ( 65)  0.1632 ( 81)  0.2589 ( 82)
           0.1086 ( 95)  0.1058 (102) -0.1035 (108)
 CRD 16=  -0.2473 ( 11)  0.2486 ( 13)  0.1709 ( 15) -0.1657 ( 16) -0.1327 ( 18)
           0.1578 ( 19)  0.2009 ( 20) -0.1309 ( 21) -0.1948 ( 35)  0.1222 ( 43)
          -0.1250 ( 44) -0.1422 ( 46)  0.1537 ( 47)  0.1021 ( 49) -0.1276 ( 70)
           0.1321 ( 74) -0.1836 ( 81)  0.2079 ( 86)  0.1881 ( 89)  0.2096 ( 93)
           0.1437 ( 95)  0.1299 ( 96) -0.1079 ( 98)  0.1329 ( 99)  0.1174 (105)
           0.1372 (110)  0.1389 (111)  0.1585 (112)  0.1783 (113)  0.1800 (114)
 CRD 17=  -0.4823 ( 15)  0.3191 ( 16) -0.2453 ( 18) -0.1534 ( 26) -0.1838 ( 39)
           0.1403 ( 42) -0.1047 ( 48)  0.1114 ( 49)  0.1037 ( 50) -0.1413 ( 51)
           0.1302 ( 53) -0.1772 ( 54)  0.1018 ( 68) -0.1054 ( 77) -0.1205 ( 92)
          -0.2019 ( 95) -0.1704 ( 96)  0.2299 (106)  0.2437 (107)
 CRD 18=   0.1210 (  4) -0.1070 (  5)  0.1145 (  6)  0.1717 (  7)  0.1094 (  9)
           0.2392 ( 10)  0.2386 ( 12)  0.1893 ( 21) -0.1057 ( 25) -0.1563 ( 31)
          -0.1317 ( 33) -0.1738 ( 51)  0.1059 ( 52)  0.1602 ( 56)  0.1133 ( 57)
           0.1070 ( 63)  0.1265 ( 71)  0.1080 ( 80)  0.1053 ( 84) -0.1507 ( 85)
          -0.1006 ( 88)  0.1051 ( 94) -0.1147 ( 98)  0.1769 ( 99)  0.2138 (100)
           0.1888 (104) -0.1508 (105) -0.1423 (110) -0.1391 (111)  0.1681 (117)
           0.2051 (120) -0.1320 (131) -0.1031 (133)
 CRD 19=  -0.1343 (  4) -0.1477 (  6) -0.1152 (  7) -0.2701 ( 12)  0.3011 ( 13)
           0.1031 ( 29) -0.1259 ( 46)  0.1001 ( 47)  0.1066 ( 48) -0.1114 ( 49)
           0.1610 ( 50) -0.1323 ( 51)  0.1386 ( 53) -0.1154 ( 58)  0.1216 ( 62)
          -0.1080 ( 66) -0.1020 ( 67) -0.1263 ( 69) -0.1082 ( 81) -0.1336 ( 85)
          -0.1439 ( 86) -0.1396 ( 88) -0.1448 ( 89) -0.1504 ( 91) -0.1351 ( 92)
          -0.1389 ( 93)  0.1303 (103) -0.1764 (105) -0.1755 (110) -0.1705 (111)
          -0.1546 (112) -0.1537 (113) -0.1487 (114) -0.1164 (119) -0.1163 (131)
          -0.1223 (132)
 CRD 20=   0.3575 (  4)  0.3431 (  6)  0.3204 (  7) -0.1843 ( 11) -0.2339 ( 12)
           0.2137 ( 13)  0.1127 ( 16) -0.1711 ( 29) -0.1243 ( 31) -0.1192 ( 33)
           0.1903 ( 48) -0.1583 ( 49)  0.1529 ( 55)  0.1203 ( 56)  0.1520 ( 57)
          -0.1583 ( 73) -0.1356 ( 74)  0.1120 ( 85)  0.1100 ( 88)  0.1034 (103)
          -0.1919 (123) -0.1691 (126)
 CRD 21=   0.3110 (  4)  0.2180 (  5)  0.2874 (  6)  0.3060 (  7) -0.1292 ( 10)
           0.1661 ( 11) -0.2053 ( 13) -0.1382 ( 16) -0.1012 ( 39) -0.1753 ( 48)
           0.1182 ( 49)  0.1334 ( 50)  0.1190 ( 62)  0.1379 ( 73)  0.1037 ( 74)
          -0.1225 ( 85) -0.1406 ( 88) -0.1525 ( 99) -0.1110 (100) -0.1091 (104)
           0.1310 (116) -0.1533 (117) -0.1119 (120)  0.1922 (123)  0.1580 (126)
          -0.1086 (132)
 CRD 22=  -0.1944 (  6)  0.1764 (  7)  0.1142 ( 13)  0.3642 ( 18) -0.3038 ( 19)
           0.1660 ( 20) -0.1333 ( 35) -0.1152 ( 39) -0.1363 ( 41)  0.1244 ( 42)
          -0.1270 ( 50)  0.1387 ( 51)  0.2444 ( 62)  0.2049 ( 66)  0.2177 ( 67)
          -0.1071 ( 69)  0.1018 ( 75)  0.1081 ( 76) -0.1282 ( 81)  0.1579 ( 82)
           0.1286 ( 85)  0.1158 ( 88) -0.1388 (105) -0.1078 (110) -0.1011 (111)
           0.1431 (131)  0.1304 (132)
 CRD 23=  -0.1014 ( 18)  0.5796 ( 20)  0.6869 ( 21)  0.1846 ( 62) -0.1056 ( 64)
          -0.1079 ( 99) -0.1059 (117)
 CRD 24=  -0.2378 (  4) -0.3400 ( 12) -0.2157 ( 13)  0.1504 ( 16)  0.1415 ( 18)
          -0.3523 ( 20)  0.1917 ( 21)  0.1965 ( 63) -0.2281 ( 64) -0.1813 ( 78)
          -0.1831 ( 79) -0.1172 ( 81) -0.1306 ( 82)  0.1635 ( 86) -0.1358 ( 94)
          -0.1377 ( 99)  0.1049 (100)  0.1461 (113) -0.1896 (115) -0.1915 (117)
 CRD 25=  -0.5615 (  4)  0.2517 (  6)  0.3497 (  7)  0.1106 ( 12) -0.1450 ( 18)
          -0.1466 ( 19)  0.1094 ( 20)  0.1044 ( 33) -0.1343 ( 55) -0.1978 ( 56)
           0.3287 ( 57)  0.1329 ( 86) -0.2113 ( 93)  0.1470 (110) -0.1971 (111)
           0.1413 (113) -0.2028 (114)
 CRD 26=  -0.5525 (  6)  0.4956 (  7) -0.1196 ( 13)  0.3093 ( 55) -0.2776 ( 56)
          -0.1090 ( 86)  0.2240 ( 89)  0.2333 (105)  0.2230 (112) -0.1100 (113)
 CRD 27=  -0.1324 (  4) -0.2695 ( 15) -0.2364 ( 16)  0.5231 ( 18)  0.5839 ( 19)
           0.2082 ( 61)  0.1054 ( 88)  0.1372 (127) -0.1133 (130)
 CRD 28=   0.2920 ( 12)  0.2438 ( 13) -0.4268 ( 15) -0.3665 ( 16) -0.3649 ( 19)
          -0.1124 ( 20) -0.1049 ( 42)  0.1023 ( 53)  0.1094 ( 59) -0.1425 ( 60)
          -0.1043 ( 91)  0.1034 ( 93) -0.1075 (117) -0.1063 (118) -0.1974 (122)
          -0.1575 (129) -0.1094 (130)
 CRD 29=   0.1196 ( 11) -0.3799 ( 13)  0.3141 ( 18) -0.1389 ( 19)  0.1783 ( 20)
          -0.1589 ( 21)  0.1289 ( 39) -0.1207 ( 46)  0.1072 ( 47) -0.1336 ( 54)
          -0.1109 ( 55) -0.1195 ( 59) -0.1324 ( 63)  0.1297 ( 64)  0.1100 ( 78)
           0.1144 ( 79)  0.1221 ( 86)  0.1179 ( 93)  0.1232 ( 94)  0.1277 ( 99)
          -0.1060 (105) -0.1186 (107) -0.1352 (116)  0.1013 (117)  0.1036 (119)
          -0.1350 (121) -0.2153 (124) -0.1665 (125) -0.1104 (127) -0.1412 (128)
          -0.1095 (129) -0.1403 (130)
 CRD 30=   0.4717 ( 12)  0.2612 ( 13)  0.2800 ( 15)  0.4513 ( 16)  0.2280 ( 18)
           0.1062 ( 19) -0.1052 ( 54)  0.1772 ( 59)  0.1649 ( 60) -0.1097 ( 92)
          -0.1019 (106) -0.2244 (121) -0.1331 (128)
 CRD 31=   0.2336 ( 11) -0.1441 ( 12)  0.2604 ( 13)  0.1023 ( 20) -0.1046 ( 47)
           0.1360 ( 58) -0.1179 ( 62) -0.1335 ( 73) -0.1303 ( 74)  0.1312 ( 76)
          -0.1674 ( 85)  0.1201 ( 86) -0.1043 ( 87) -0.1786 ( 88)  0.1048 ( 93)
           0.1241 ( 96)  0.1242 ( 97)  0.1094 ( 99) -0.1423 (103) -0.1146 (105)
           0.2110 (109) -0.1021 (115) -0.1812 (116) -0.1780 (118)  0.1447 (119)
           0.1008 (125)  0.1704 (127)  0.1440 (128)  0.2071 (129)  0.1807 (130)
 CRD 32=  -0.1146 (  7)  0.1768 (  8) -0.1322 (  9)  0.1720 ( 11)  0.1009 ( 18)
          -0.1040 ( 19)  0.1019 ( 20)  0.1537 ( 21)  0.1662 ( 23) -0.2911 ( 62)
           0.2289 ( 63)  0.1843 ( 64) -0.1197 ( 71) -0.2891 ( 78)  0.1892 ( 79)
          -0.2707 ( 94)  0.2076 ( 99)  0.1097 (103) -0.3668 (115)  0.1198 (116)
           0.1115 (117)  0.1308 (118)
 CRD 33=   0.1386 ( 12) -0.1785 ( 13) -0.3597 ( 15)  0.2594 ( 16) -0.1092 ( 18)
           0.1012 ( 19)  0.1190 ( 26)  0.1325 ( 75)  0.1152 ( 76) -0.1150 ( 90)
          -0.1671 ( 91) -0.1437 ( 92)  0.1933 ( 95)  0.1570 ( 96) -0.1560 (106)
          -0.1918 (107) -0.1848 (121) -0.2082 (122) -0.2205 (124) -0.2439 (125)
           0.1963 (127)  0.2326 (128)  0.1791 (129)  0.2154 (130)
 CRD 34=   0.2073 (  4)  0.2333 (  6)  0.1695 (  7) -0.1963 (  8) -0.1101 (  9)
           0.2797 ( 11) -0.1553 ( 24)  0.1749 ( 29)  0.1796 ( 31)  0.1827 ( 33)
           0.1193 ( 37)  0.1112 ( 51) -0.1563 ( 55) -0.2100 ( 56) -0.1844 ( 57)
           0.1118 ( 79)  0.1135 ( 80) -0.1682 ( 81) -0.1156 ( 82)  0.1087 ( 84)
          -0.1417 ( 98)  0.1278 (101)  0.1803 (117) -0.1441 (119)  0.1820 (120)
          -0.1100 (121)  0.1869 (131) -0.1076 (133)
 CRD 35=  -0.1145 (  6) -0.1180 (  7)  0.1788 (  8) -0.2227 (  9)  0.3651 ( 11)
          -0.1245 ( 21)  0.1235 ( 23)  0.1238 ( 28)  0.1135 ( 30) -0.1567 ( 40)
           0.1117 ( 48)  0.1074 ( 49)  0.1460 ( 57) -0.1084 ( 58)  0.1318 ( 61)
           0.1113 ( 62) -0.1393 ( 64)  0.1017 ( 74)  0.1138 ( 78) -0.1562 ( 79)
           0.1781 ( 94) -0.1056 (101)  0.1092 (104)  0.1543 (112)  0.1841 (113)
           0.1195 (114) -0.1765 (117)  0.1296 (118) -0.1844 (123)  0.1556 (129)
          -0.1448 (131)
 CRD 36=   0.1166 (  9)  0.2294 ( 12) -0.2941 ( 13)  0.2749 ( 15) -0.2317 ( 16)
          -0.1816 ( 18)  0.1449 ( 19) -0.1241 ( 26) -0.1110 ( 39) -0.1211 ( 58)
           0.1119 ( 66)  0.1215 ( 67) -0.2245 ( 69) -0.1351 ( 73) -0.1567 ( 74)
           0.1594 ( 75)  0.1405 ( 76)  0.1244 ( 81) -0.1101 ( 82)  0.1055 ( 86)
          -0.1070 ( 87) -0.1307 ( 91)  0.1059 ( 93)  0.1026 ( 97)  0.1382 (103)
          -0.1158 (105)  0.1339 (107)  0.1111 (108) -0.1790 (119)
 CRD 37=   0.1432 (  5) -0.1559 (  8)  0.1101 (  9)  0.1649 ( 15) -0.2266 ( 16)
          -0.1203 ( 18)  0.1230 ( 19) -0.1526 ( 20) -0.1573 ( 35) -0.1481 ( 39)
           0.1207 ( 55)  0.1524 ( 58)  0.1051 ( 67)  0.1973 ( 69)  0.1016 ( 74)
           0.1382 ( 76) -0.2054 ( 81)  0.1313 ( 82)  0.1536 ( 85) -0.1059 ( 86)
           0.1017 ( 88) -0.1470 ( 91) -0.1677 ( 92) -0.1313 (103)  0.1510 (109)
          -0.2270 (116) -0.1277 (118)  0.2444 (119) -0.1164 (121)
 CRD 38=  -0.2323 (  4)  0.4225 (  5) -0.1486 (  6) -0.1171 (  7)  0.1274 ( 11)
          -0.1434 ( 12)  0.2174 ( 20) -0.1267 ( 21) -0.1347 ( 25) -0.1694 ( 29)
          -0.1701 ( 31) -0.1852 ( 33) -0.1297 ( 42)  0.1298 ( 44)  0.1898 ( 55)
           0.2177 ( 56)  0.1296 ( 57)  0.1048 ( 59) -0.1052 ( 69) -0.1036 ( 78)
           0.1083 ( 91) -0.1123 (106) -0.1368 (119)  0.1627 (120) -0.1973 (121)
           0.1159 (125)  0.1277 (131)
 CRD 39=  -0.1614 (  4)  0.1109 (  7) -0.3317 (  8)  0.1619 (  9)  0.1577 ( 11)
           0.1570 ( 12) -0.1302 ( 17) -0.1080 ( 19)  0.1376 ( 20)  0.1319 ( 22)
          -0.1206 ( 23)  0.1186 ( 26) -0.1810 ( 46) -0.1110 ( 47)  0.1409 ( 48)
           0.1215 ( 49)  0.1509 ( 53)  0.1222 ( 54) -0.1225 ( 57) -0.1520 ( 59)
          -0.1283 ( 67) -0.1278 ( 73)  0.1206 ( 74) -0.1803 ( 75) -0.1046 ( 79)
           0.1170 ( 81)  0.1112 ( 92)  0.1383 (111) -0.1297 (113) -0.1028 (115)
          -0.1116 (117)  0.1709 (118)  0.1229 (121) -0.1726 (123)  0.1128 (124)
          -0.1309 (127)  0.1072 (129)  0.1753 (130)
 CRD 40=   0.1798 (  5)  0.1328 (  9)  0.1049 ( 10) -0.1168 ( 11)  0.1000 ( 14)
          -0.1712 ( 17) -0.1007 ( 19) -0.3350 ( 20)  0.3743 ( 21)  0.1236 ( 25)
          -0.1867 ( 34)  0.1319 ( 41)  0.1392 ( 50)  0.1185 ( 60) -0.1923 ( 63)
           0.1768 ( 64) -0.1521 ( 66) -0.1066 ( 75)  0.1661 ( 78)  0.1393 ( 79)
          -0.1037 ( 82) -0.1420 ( 88)  0.1273 ( 96) -0.1126 (100) -0.1324 (120)
          -0.1344 (128)  0.2008 (129) -0.1093 (132)
 CRD 41=  -0.2234 (  5)  0.1162 (  7) -0.1210 (  8)  0.2512 ( 10)  0.1065 ( 11)
          -0.3112 ( 14)  0.2312 ( 17)  0.1070 ( 19)  0.1291 ( 21) -0.1526 ( 42)
          -0.1043 ( 44)  0.1413 ( 46)  0.1387 ( 47) -0.1476 ( 53) -0.1755 ( 54)
          -0.1237 ( 61)  0.1684 ( 91)  0.1045 (103) -0.1079 (117)  0.1678 (118)
          -0.1476 (120) -0.2358 (121)  0.1787 (125)  0.1486 (128) -0.1559 (129)
 CRD 42=  -0.2558 (  5)  0.1548 (  7)  0.1317 (  8)  0.2691 (  9)  0.1230 ( 10)
          -0.1667 ( 11)  0.1336 ( 14) -0.1732 ( 16) -0.1013 ( 19)  0.2040 ( 20)
          -0.2237 ( 21) -0.1306 ( 26) -0.1812 ( 34)  0.1083 ( 35) -0.1293 ( 41)
           0.1153 ( 50) -0.1312 ( 55)  0.1530 ( 60)  0.1025 ( 63) -0.1087 ( 64)
          -0.1613 ( 66) -0.1353 ( 89) -0.1059 ( 95)  0.1125 ( 96)  0.1204 (104)
          -0.1087 (108)  0.1004 (110)  0.1024 (111) -0.1198 (121) -0.1205 (124)
           0.1044 (127) -0.1140 (128)  0.2206 (129) -0.1282 (132)
 CRD 43=  -0.1672 (  5)  0.2523 (  8)  0.1499 ( 10) -0.1195 ( 11) -0.1712 ( 12)
          -0.1118 ( 16)  0.1310 ( 17) -0.1624 ( 25) -0.1641 ( 39) -0.1977 ( 42)
           0.2011 ( 44) -0.1305 ( 46) -0.1065 ( 47)  0.1492 ( 49) -0.1170 ( 50)
          -0.1234 ( 51)  0.1309 ( 59)  0.1061 ( 60)  0.1103 ( 66)  0.1107 ( 76)
          -0.1283 ( 85) -0.1151 (100) -0.1038 (103) -0.1672 (106)  0.1359 (107)
           0.1385 (115)  0.1736 (117)  0.1090 (120) -0.1911 (121) -0.2157 (122)
           0.1121 (124)  0.1416 (126)  0.1068 (129)  0.1566 (130) -0.1222 (131)
 CRD 44=  -0.3177 (  6)  0.2777 (  7) -0.1390 (  9) -0.1045 ( 13)  0.1034 ( 15)
          -0.1150 ( 24) -0.1608 ( 29)  0.1219 ( 31) -0.2126 ( 55)  0.2274 ( 56)
           0.1557 ( 65) -0.1736 ( 67) -0.1155 ( 68)  0.1186 ( 69)  0.1007 ( 70)
          -0.3222 ( 89) -0.1137 ( 91) -0.1690 (105)  0.2043 (110)  0.1919 (111)
          -0.2447 (112)  0.1285 (113)  0.1161 (114)  0.1086 (117) -0.1208 (118)
           0.1038 (128)
 CRD 45=  -0.2028 (  4)  0.1219 (  6)  0.1150 (  7)  0.1426 ( 11) -0.1285 ( 12)
           0.1883 ( 14)  0.1531 ( 17) -0.1316 ( 19)  0.1425 ( 22) -0.1251 ( 23)
           0.1493 ( 27)  0.2007 ( 33) -0.1113 ( 38)  0.1179 ( 39) -0.1164 ( 44)
          -0.1288 ( 48) -0.1693 ( 57)  0.1320 ( 59)  0.1740 ( 61)  0.1120 ( 66)
           0.1678 ( 73) -0.1187 ( 74) -0.1331 ( 86)  0.1180 ( 88)  0.1427 ( 93)
           0.1367 ( 94)  0.1600 ( 99)  0.1081 (100) -0.1429 (110)  0.1329 (111)
          -0.1414 (113)  0.1344 (114)  0.2144 (116) -0.1993 (126)  0.1027 (127)
           0.1121 (129) -0.1400 (131)
 CRD 46=  -0.3054 (  4) -0.1301 (  5)  0.1487 (  6)  0.1500 (  7)  0.1054 (  8)
          -0.1325 ( 14) -0.3016 ( 22)  0.3100 ( 23)  0.1387 ( 55)  0.1478 ( 56)
          -0.2298 ( 57) -0.3093 ( 71) -0.2053 ( 86)  0.1725 ( 93) -0.1951 (110)
           0.1828 (111) -0.1472 (113)  0.2307 (114) -0.1301 (116)
 CRD 47=  -0.1035 (  9)  0.1056 ( 12) -0.2727 ( 13)  0.2565 ( 18) -0.1658 ( 19)
           0.1351 ( 26) -0.1489 ( 39)  0.1089 ( 47)  0.1224 ( 48) -0.1071 ( 49)
           0.1165 ( 50) -0.1030 ( 52) -0.1066 ( 54)  0.1276 ( 59) -0.1068 ( 65)
          -0.1406 ( 66)  0.1133 ( 72) -0.1442 ( 74) -0.1026 ( 76)  0.1118 ( 87)
          -0.1164 ( 92)  0.1983 ( 95)  0.1186 ( 96) -0.1474 ( 97)  0.1163 (102)
           0.1512 (105)  0.2302 (107) -0.1587 (108) -0.1081 (109) -0.1684 (118)
           0.1626 (124)  0.2510 (125) -0.1412 (126)  0.1596 (128)  0.1083 (130)
          -0.1381 (132)
 CRD 48=   0.1026 (  5) -0.1817 (  8) -0.1693 ( 16)  0.3343 ( 17) -0.1025 ( 19)
          -0.2068 ( 22) -0.1170 ( 24)  0.1384 ( 25)  0.1445 ( 26) -0.1107 ( 27)
          -0.1037 ( 33)  0.2196 ( 37)  0.1197 ( 38) -0.1206 ( 45)  0.1208 ( 46)
          -0.1787 ( 51) -0.1156 ( 54)  0.1179 ( 60)  0.1132 ( 61)  0.1180 ( 66)
          -0.1644 ( 67) -0.1206 ( 71) -0.1070 ( 77) -0.1643 ( 85)  0.1180 ( 88)
          -0.1191 ( 92)  0.1403 (101) -0.1380 (104)  0.1263 (106)  0.1389 (122)
          -0.2175 (124)  0.1135 (130)  0.2164 (132)
 CRD 49=   0.1088 (  4) -0.1584 (  5)  0.2601 (  9) -0.3297 ( 10)  0.1338 ( 11)
           0.1570 ( 12)  0.1556 ( 17) -0.1274 ( 19)  0.1354 ( 22) -0.2159 ( 25)
          -0.1175 ( 33)  0.1090 ( 42)  0.1038 ( 44) -0.1005 ( 53) -0.1236 ( 59)
           0.1158 ( 61) -0.1354 ( 78) -0.1315 ( 79) -0.1466 ( 80) -0.1416 ( 84)
          -0.1265 ( 92)  0.1200 (106) -0.1287 (114)  0.1081 (115) -0.1303 (116)
           0.1119 (117)  0.2040 (122) -0.1275 (124)  0.1408 (127)  0.1394 (133)
 CRD 50=  -0.1822 (  9) -0.2265 ( 10)  0.2341 ( 14) -0.1976 ( 16)  0.1706 ( 19)
           0.1024 ( 23)  0.1835 ( 32) -0.1079 ( 37) -0.1950 ( 45) -0.1008 ( 47)
          -0.1047 ( 49)  0.1014 ( 53)  0.2025 ( 60) -0.2126 ( 61)  0.1109 ( 67)
          -0.1054 ( 75)  0.1946 ( 76)  0.1062 ( 85) -0.1275 ( 92) -0.2201 ( 96)
           0.1394 (106)  0.1673 (122) -0.1734 (124) -0.3131 (127)  0.2994 (130)
          -0.1196 (132)
 CRD 51=  -0.2070 (  5) -0.1828 (  8)  0.1266 (  9)  0.1197 ( 11) -0.1438 ( 12)
           0.1576 ( 14)  0.1330 ( 15) -0.1500 ( 17) -0.1313 ( 22)  0.1721 ( 23)
          -0.1621 ( 33)  0.1521 ( 43) -0.1423 ( 48)  0.1140 ( 53)  0.1313 ( 59)
          -0.1095 ( 60)  0.1753 ( 65) -0.2147 ( 71)  0.1843 ( 73) -0.1188 ( 77)
          -0.1275 ( 79)  0.1188 ( 87)  0.1338 ( 94) -0.1000 ( 97) -0.1338 ( 98)
           0.1568 (101) -0.1228 (102) -0.1179 (103)  0.1143 (108) -0.1228 (118)
          -0.1940 (122) -0.1267 (125) -0.1277 (126)  0.1408 (128)
 CRD 52=   0.2219 (  8)  0.1120 ( 13) -0.1253 ( 14)  0.2053 ( 15)  0.1212 ( 18)
           0.2213 ( 22) -0.1875 ( 23)  0.1206 ( 32)  0.1699 ( 33)  0.1249 ( 38)
           0.1503 ( 46) -0.1179 ( 51) -0.1240 ( 54) -0.1137 ( 59)  0.1073 ( 68)
           0.2126 ( 71) -0.1062 ( 72) -0.1802 ( 77)  0.1310 ( 87)  0.1689 ( 90)
          -0.1037 ( 96) -0.1334 (103)  0.1766 (106) -0.1554 (124) -0.2425 (125)
           0.1016 (126)  0.1720 (127)  0.2418 (128) -0.1067 (132)
 CRD 53=   0.1326 (  8)  0.2707 ( 10) -0.1159 ( 15)  0.1939 ( 22) -0.1833 ( 23)
          -0.1330 ( 27)  0.1301 ( 32)  0.1133 ( 33)  0.2988 ( 43) -0.1130 ( 45)
           0.1004 ( 47) -0.1138 ( 49)  0.1810 ( 52)  0.1890 ( 65)  0.1244 ( 69)
           0.1376 ( 71)  0.1041 ( 72)  0.1301 ( 81) -0.2343 ( 98) -0.1204 (103)
           0.2252 (108)  0.1607 (109) -0.1116 (110) -0.1629 (116) -0.2304 (118)
           0.1269 (122)  0.1179 (125)
 CRD 54=  -0.5852 (  5) -0.1437 (  8) -0.3176 (  9) -0.1527 ( 10) -0.1460 ( 17)
          -0.2952 ( 23) -0.2121 ( 29) -0.1838 ( 31) -0.1074 ( 32)  0.2193 ( 37)
           0.1615 ( 55)  0.1513 ( 56)  0.1661 ( 57) -0.2000 (104)

 THE DETERMINANT OF THE G MATRIX IS 10**(   -13)


                     --------------------
                     INTERNAL COORDINATES
                     --------------------

                 - - ATOMS - -         COORDINATE      COORDINATE
 NO.   TYPE    I  J  K  L  M  N        (BOHR,RAD)       (ANG,DEG)
 ----------------------------------------------------------------
   1 STRETCH   2 20                     3.7944358       2.0079291
   2 STRETCH   3 17                     3.9294373       2.0793688
   3 STRETCH  17 20                     3.7476930       1.9831939
   4 STRETCH   1  7                     2.0989734       1.1107289
   5 STRETCH   1  2                     2.8453275       1.5056826
   6 STRETCH   1  9                     2.0971986       1.1097898
   7 STRETCH   1  8                     2.0971179       1.1097471
   8 STRETCH   2  3                     2.5737206       1.3619544
   9 STRETCH   2  6                     2.8410502       1.5034191
  10 STRETCH   3  4                     2.8732912       1.5204803
  11 STRETCH   3 10                     2.0954874       1.1088842
  12 STRETCH   4 12                     2.0991180       1.1108055
  13 STRETCH   4 11                     2.1025444       1.1126187
  14 STRETCH   4  5                     2.8748451       1.5213026
  15 STRETCH   5 14                     2.1048105       1.1138178
  16 STRETCH   5 13                     2.0983831       1.1104166
  17 STRETCH   5  6                     2.8802105       1.5241419
  18 STRETCH   6 15                     2.1003949       1.1114812
  19 STRETCH   6 16                     2.0994595       1.1109862
  20 STRETCH  17 19                     2.2376528       1.1841149
  21 STRETCH  17 18                     2.2366913       1.1836061
  22 BEND      1  2  3                  2.1657639     124.0891302
  23 BEND      1  2  6                  2.1546363     123.4515668
  24 BEND      1  2 20                  1.6161084      92.5961925
  25 BEND      2  3 10                  2.0795772     119.1509939
  26 BEND      2  6 16                  2.0023419     114.7257372
  27 BEND      2  3  4                  1.8725873     107.2913495
  28 BEND      2 20 17                  1.5462364      88.5928176
  29 BEND      2  1  8                  1.9089130     109.3726580
  30 BEND      2  3 17                  1.8554436     106.3090853
  31 BEND      2  1  9                  1.9208794     110.0582804
  32 BEND      2  6  5                  1.7807729     102.0307711
  33 BEND      2  1  7                  1.9386045     111.0738545
  34 BEND      2  6 15                  1.8714151     107.2241872
  35 BEND      3 17 18                  2.0224399     115.8772719
  36 BEND      3 17 20                  1.2877507      73.7826788
  37 BEND      3  2  6                  1.9535245     111.9287116
  38 BEND      3  4  5                  1.7781834     101.8824062
  39 BEND      3  4 12                  2.0117212     115.2631348
  40 BEND      3  2 20                  1.5829985      90.6991335
  41 BEND      3 17 19                  1.9383055     111.0567272
  42 BEND      3  4 11                  1.8765883     107.5205910
  43 BEND      4  3 17                  1.8189347     104.2172788
  44 BEND      4  3 10                  2.1952164     125.7766325
  45 BEND      4  5  6                  1.8038220     103.3513876
  46 BEND      4  5 13                  2.0274611     116.1649637
  47 BEND      4  5 14                  1.8602233     106.5829429
  48 BEND      5  4 11                  1.9130779     109.6112921
  49 BEND      5  4 12                  1.9700834     112.8774618
  50 BEND      5  6 16                  1.9287382     110.5085564
  51 BEND      5  6 15                  1.9532770     111.9145298
  52 BEND      6  2 20                  1.6392438      93.9217538
  53 BEND      6  5 13                  2.0146429     115.4305378
  54 BEND      6  5 14                  1.8690019     107.0859188
  55 BEND      7  1  8                  1.8985860     108.7809630
  56 BEND      7  1  9                  1.8980099     108.7479574
  57 BEND      8  1  9                  1.8982589     108.7622221
  58 BEND     10  3 17                  1.5498218      88.7982475
  59 BEND     11  4 12                  1.9081357     109.3281251
  60 BEND     13  5 14                  1.8777661     107.5880704
  61 BEND     15  6 16                  1.9234952     110.2081576
  62 BEND     18 17 19                  2.0191999     115.6916345
  63 BEND     18 17 20                  2.0393743     116.8475404
  64 BEND     19 17 20                  2.0363062     116.6717523
  65 TORSION   1  2  3 17              -1.5214605     -87.1732665
  66 TORSION   1  2  6 16               0.9661516      55.3564072
  67 TORSION   1  2  6 15              -1.1761665     -67.3893750
  68 TORSION   1  2  6  5               3.0519196     174.8621146
  69 TORSION   1  2  3 10               0.1879539      10.7689671
  70 TORSION   1  2  3  4               2.8236322     161.7822101
  71 TORSION   1  2 20 17               2.0540979     117.6911409
  72 TORSION   2  3  4  5               0.5096273      29.1994960
  73 TORSION   2  3  4 11              -1.5013444     -86.0206989
  74 TORSION   2  3  4 12               2.6491804     151.7868553
  75 TORSION   2  6  5 13               2.7671327     158.5450267
  76 TORSION   2  6  5 14              -1.4260497     -81.7066293
  77 TORSION   2  6  5  4               0.5343544      30.6162528
  78 TORSION   2  3 17 18              -2.0808558    -119.2242564
  79 TORSION   2  3 17 19               1.8518195     106.1014424
  80 TORSION   2  3 17 20              -0.1184685      -6.7877471
  81 TORSION   2 20 17 18               2.0184851     115.6506778
  82 TORSION   2 20 17 19              -1.7698832    -101.4068351
  83 TORSION   2 20 17  3               0.0770415       4.4141510
  84 TORSION   3  2 20 17              -0.1130806      -6.4790400
  85 TORSION   3  2  6 15               1.8247568     104.5508633
  86 TORSION   3  2  1  8              -2.0050746    -114.8823113
  87 TORSION   3  2  6  5              -0.2303424     -13.1976470
  88 TORSION   3  2  6 16              -2.3161105    -132.7033545
  89 TORSION   3  2  1  7               0.0907404       5.1990432
  90 TORSION   3  4  5  6              -0.6366232     -36.4758245
  91 TORSION   3  4  5 13              -2.8613846    -163.9452638
  92 TORSION   3  4  5 14               1.3301914      76.2143528
  93 TORSION   3  2  1  9               2.1936808     125.6886491
  94 TORSION   4  3 17 18              -0.1055054      -6.0450142
  95 TORSION   4  5  6 16               2.6712291     153.0501513
  96 TORSION   4  5  6 15              -1.4611752     -83.7191731
  97 TORSION   4  3  2  6              -0.1762333     -10.0974267
  98 TORSION   4  3  2 20              -1.8257574    -104.6081958
  99 TORSION   4  3 17 19              -2.4560154    -140.7193154
 100 TORSION   4  3 17 20               1.8568819     106.3914951
 101 TORSION   5  6  2 20               1.3812484      79.1397014
 102 TORSION   5  4  3 17              -1.4534257     -83.2751604
 103 TORSION   5  4  3 10               3.1024207     177.7556109
 104 TORSION   6  2 20 17              -2.0684826    -118.5153220
 105 TORSION   6  2  1  7               3.0746322     176.1634513
 106 TORSION   6  5  4 11               1.3473889      77.1996981
 107 TORSION   6  5  4 12              -2.8043909    -160.6797646
 108 TORSION   6  2  3 17               1.7618592     100.9470967
 109 TORSION   6  2  3 10              -2.8119116    -161.1106698
 110 TORSION   6  2  1  8               0.9788172      56.0820968
 111 TORSION   6  2  1  9              -1.1056127     -63.3469428
 112 TORSION   7  1  2 20              -1.5255074     -87.4051337
 113 TORSION   8  1  2 20               2.6618629     152.5135118
 114 TORSION   9  1  2 20               0.5774330      33.0844722
 115 TORSION  10  3 17 18               2.1061905     120.6758279
 116 TORSION  10  3  4 11               1.0914489      62.5354159
 117 TORSION  10  3 17 19              -0.2443194     -13.9984733
 118 TORSION  10  3  4 12              -1.0412116     -59.6570299
 119 TORSION  10  3  2 20               1.8217496     104.3785611
 120 TORSION  10  3 17 20              -2.2146075    -126.8876628
 121 TORSION  11  4  5 14              -2.9689818    -170.1101245
 122 TORSION  11  4  5 13              -0.8773725     -50.2697412
 123 TORSION  11  4  3 17               2.8187878     161.5046446
 124 TORSION  12  4  5 14              -0.8375763     -47.9895872
 125 TORSION  12  4  5 13               1.2540330      71.8507961
 126 TORSION  12  4  3 17               0.6861273      39.3121988
 127 TORSION  13  5  6 15               0.7716031      44.2096009
 128 TORSION  13  5  6 16              -1.3791779     -79.0210748
 129 TORSION  14  5  6 15               2.8616060     163.9579448
 130 TORSION  14  5  6 16               0.7108249      40.7272692
 131 TORSION  15  6  2 20              -2.8468378    -163.1117883
 132 TORSION  16  6  2 20              -0.7045197     -40.3660061
 133 TORSION  17  3  2 20               0.1123351       6.4363276

     ------------------------------------------
     THE POINT GROUP IS C1 , NAXIS= 0, ORDER= 1
     ------------------------------------------

     DIMENSIONS OF THE SYMMETRY SUBSPACES ARE
 A   =   48

 ..... DONE SETTING UP THE RUN .....
 STEP CPU TIME =     0.08 TOTAL CPU TIME =          0.1 (      0.0 MIN)
 TOTAL WALL CLOCK TIME=          0.1 SECONDS, CPU UTILIZATION IS    80.00%


          -----------------------------
          STATIONARY POINT LOCATION RUN
          -----------------------------


           ** GEOMETRY CONSTRAINTS ARE BEING APPLIED. **

          TRANSFORMING DISPLACEMENT FROM INTERNALS TO CARTESIANS
          THE ROOT MEAN SQUARE ERROR IN ITERATION   1 IS   0.00000211
          THE ROOT MEAN SQUARE ERROR IN ITERATION   2 IS   0.00000000
 WARNING! THE RADIUS IN CARTESIANS IS    0.00775
 OBTAINING INITIAL HESSIAN, HESS=CALC    

     ---------------------------------
     HESSIAN MATRIX CONTROL PARAMETERS
     ---------------------------------
     METHOD=ANALYTIC   NVIB  =       2   VIBSIZ= 0.01000
     RDHESS=       F   PURIFY=       F   PRTIFC=       F
     VIBANL=       F   DECOMP=       F   PROJCT=       F
     SCLFAC= 1.00000   PRTSCN=       F   NPRT  =       0
     PULCOR=       F   NPUN  =       0   REDOVB=       T
     HSSTYP=GENERAL 
 Old integral subroutine is used

     ------------------------------
     CPHF RESPONSE SOLUTION OPTIONS
     ------------------------------
     POLAR  =       F     NWORD  =       0
     CPHF   =AO      

          ********************
          1 ELECTRON INTEGRALS
          ********************
 ...... END OF ONE-ELECTRON INTEGRALS ......
 STEP CPU TIME =     0.04 TOTAL CPU TIME =          0.1 (      0.0 MIN)
 TOTAL WALL CLOCK TIME=          0.2 SECONDS, CPU UTILIZATION IS    80.00%

          -------------
          GUESS OPTIONS
          -------------
          GUESS =HUCKEL            NORB  =       0          NORDER=       0
          MIX   =       F          PRTMO =       F          PUNMO =       F
          TOLZ  = 1.0E-08          TOLE  = 1.0E-05
          SYMDEN=       F          PURIFY=       F

 INITIAL GUESS ORBITALS GENERATED BY HUCKEL   ROUTINE.
 HUCKEL GUESS REQUIRES     39252 WORDS.

 SYMMETRIES FOR INITIAL GUESS ORBITALS FOLLOW.   BOTH SET(S).
    27 ORBITALS ARE OCCUPIED (    7 CORE ORBITALS).
     8=A        9=A       10=A       11=A       12=A       13=A       14=A   
    15=A       16=A       17=A       18=A       19=A       20=A       21=A   
    22=A       23=A       24=A       25=A       26=A       27=A       28=A   
    29=A       30=A       31=A       32=A       33=A       34=A       35=A   
    36=A       37=A   
 ...... END OF INITIAL ORBITAL SELECTION ......
 STEP CPU TIME =     0.02 TOTAL CPU TIME =          0.1 (      0.0 MIN)
 TOTAL WALL CLOCK TIME=          0.2 SECONDS, CPU UTILIZATION IS    87.50%

                    ----------------------
                    AO INTEGRAL TECHNOLOGY
                    ----------------------
     S,P,L SHELL ROTATED AXIS INTEGRALS, REPROGRAMMED BY
        KAZUYA ISHIMURA (IMS) AND JOSE SIERRA (SYNSTAR).
     S,P,D,L SHELL ROTATED AXIS INTEGRALS PROGRAMMED BY
        KAZUYA ISHIMURA (INSTITUTE FOR MOLECULAR SCIENCE).
     S,P,D,F,G SHELL TO TOTAL QUARTET ANGULAR MOMENTUM SUM 5,
        ERIC PROGRAM BY GRAHAM FLETCHER (ELORET AND NASA ADVANCED
        SUPERCOMPUTING DIVISION, AMES RESEARCH CENTER).
     S,P,D,F,G,L SHELL GENERAL RYS QUADRATURE PROGRAMMED BY
        MICHEL DUPUIS (PACIFIC NORTHWEST NATIONAL LABORATORY).

          --------------------
          2 ELECTRON INTEGRALS
          --------------------

 THE -PK- OPTION IS OFF, THE INTEGRALS ARE NOT IN SUPERMATRIX FORM.
 STORING   15000 INTEGRALS/RECORD ON DISK, USING 12 BYTES/INTEGRAL.
 TWO ELECTRON INTEGRAL EVALUATION REQUIRES   89734 WORDS OF MEMORY.
 SCHWARZ INEQUALITY OVERHEAD:      1167 INTEGRALS, T=        0.00
 II,JST,KST,LST =  1  1  1  1 NREC =         1 INTLOC =    1
 II,JST,KST,LST =  2  1  1  1 NREC =         1 INTLOC =    2
 II,JST,KST,LST =  3  1  1  1 NREC =         1 INTLOC =   34
 II,JST,KST,LST =  4  1  1  1 NREC =         1 INTLOC =  135
 II,JST,KST,LST =  5  1  1  1 NREC =         1 INTLOC = 1340
 II,JST,KST,LST =  6  1  1  1 NREC =         1 INTLOC = 1931
 II,JST,KST,LST =  7  1  1  1 NREC =         1 INTLOC = 6812
 II,JST,KST,LST =  8  1  1  1 NREC =         1 INTLOC = 8422
 II,JST,KST,LST =  9  1  1  1 NREC =         2 INTLOC = 5690
 II,JST,KST,LST = 10  1  1  1 NREC =         2 INTLOC = 9117
 II,JST,KST,LST = 11  1  1  1 NREC =         4 INTLOC = 3789
 II,JST,KST,LST = 12  1  1  1 NREC =         4 INTLOC =10823
 II,JST,KST,LST = 13  1  1  1 NREC =         7 INTLOC =10824
 II,JST,KST,LST = 14  1  1  1 NREC =         8 INTLOC = 9870
 II,JST,KST,LST = 15  1  1  1 NREC =         9 INTLOC =10462
 II,JST,KST,LST = 16  1  1  1 NREC =        10 INTLOC =12516
 II,JST,KST,LST = 17  1  1  1 NREC =        12 INTLOC = 1599
 II,JST,KST,LST = 18  1  1  1 NREC =        13 INTLOC = 7357
 II,JST,KST,LST = 19  1  1  1 NREC =        14 INTLOC =14495
 II,JST,KST,LST = 20  1  1  1 NREC =        16 INTLOC = 8528
 II,JST,KST,LST = 21  1  1  1 NREC =        18 INTLOC = 5131
 II,JST,KST,LST = 22  1  1  1 NREC =        20 INTLOC = 4185
 II,JST,KST,LST = 23  1  1  1 NREC =        22 INTLOC = 5484
 II,JST,KST,LST = 24  1  1  1 NREC =        24 INTLOC = 1697
 II,JST,KST,LST = 25  1  1  1 NREC =        34 INTLOC =11426
 II,JST,KST,LST = 26  1  1  1 NREC =        37 INTLOC =12567
 II,JST,KST,LST = 27  1  1  1 NREC =        41 INTLOC = 1356
 SCHWARZ INEQUALITY TEST SKIPPED        8150 INTEGRAL BLOCKS.
 TOTAL NUMBER OF NONZERO TWO-ELECTRON INTEGRALS =              655449
         44 INTEGRAL RECORDS WERE STORED ON DISK FILE  8.
  ...... END OF TWO-ELECTRON INTEGRALS .....
 STEP CPU TIME =     0.17 TOTAL CPU TIME =          0.3 (      0.0 MIN)
 TOTAL WALL CLOCK TIME=          0.3 SECONDS, CPU UTILIZATION IS    91.18%

          --------------------------
                 RHF SCF CALCULATION
          --------------------------

     NUCLEAR ENERGY =       302.7421546871
     MAXIT =   30     NPUNCH=    2
     EXTRAP=T  DAMP=F  SHIFT=F  RSTRCT=F  DIIS=F  DEM=F  SOSCF=T
     DENSITY MATRIX CONV=  1.00E-05
     SOSCF WILL OPTIMIZE     567 ORBITAL ROTATIONS, SOGTOL=   0.250
     MEMORY REQUIRED FOR RHF ITERS=     49068 WORDS.

 ITER EX DEM     TOTAL ENERGY        E CHANGE  DENSITY CHANGE     ORB. GRAD
   1  0  0     -255.7127113962  -255.7127113962   0.298791536   0.000000000
          ---------------START SECOND ORDER SCF---------------
   2  1  0     -256.0716743569    -0.3589629607   0.132917332   0.033058782
   3  2  0     -256.0925489135    -0.0208745566   0.045712809   0.018062344
   4  3  0     -256.0966990329    -0.0041501194   0.014625334   0.004394956
   5  4  0     -256.0970437461    -0.0003447132   0.017535769   0.002374871
   6  5  0     -256.0971909037    -0.0001471576   0.015559013   0.001241702
   7  6  0     -256.0972535755    -0.0000626718   0.003169890   0.000357346
   8  7  0     -256.0972612446    -0.0000076691   0.001218950   0.000162858
   9  8  0     -256.0972624025    -0.0000011579   0.000348373   0.000069116
  10  9  0     -256.0972625201    -0.0000001175   0.000089115   0.000020727
  11 10  0     -256.0972625361    -0.0000000160   0.000032753   0.000008690
  12 11  0     -256.0972625375    -0.0000000013   0.000011367   0.000002518
  13 12  0     -256.0972625376    -0.0000000001   0.000001613   0.000000403
  14 13  0     -256.0972625376    -0.0000000000   0.000000627   0.000000113

          -----------------
          DENSITY CONVERGED
          -----------------
     TIME TO FORM FOCK OPERATORS=       0.1 SECONDS (       0.0 SEC/ITER)
     TIME TO SOLVE SCF EQUATIONS=       0.1 SECONDS (       0.0 SEC/ITER)

 FINAL RHF ENERGY IS     -256.0972625376 AFTER  14 ITERATIONS

          ------------
          EIGENVECTORS
          ------------

                      1          2          3          4          5
                  -11.1366   -11.0806   -11.0789   -11.0510   -11.0495
                     A          A          A          A          A   
    1  C  1  S   -0.001533   0.991959   0.007017   0.000211   0.000129
    2  C  1  S   -0.005579   0.037374   0.000413  -0.000088  -0.000065
    3  C  1  X   -0.004073   0.000419   0.000047  -0.000074  -0.000059
    4  C  1  Y    0.000090   0.000109   0.000052  -0.000031   0.000020
    5  C  1  Z   -0.000043  -0.000121  -0.000019   0.000024  -0.000033
    6  C  2  S    0.992340   0.002469   0.002208   0.000558   0.000648
    7  C  2  S    0.035037  -0.005929  -0.006163   0.000097   0.000196
    8  C  2  X    0.001214   0.004480  -0.002359  -0.000213  -0.000092
    9  C  2  Y   -0.000978   0.000098  -0.003726   0.000040  -0.000053
   10  C  2  Z   -0.000118   0.000102   0.000653  -0.000111   0.000071
   11  C  3  S    0.002325  -0.000146  -0.000330  -0.000822  -0.002108
   12  C  3  S   -0.007233   0.000153   0.000234   0.000487  -0.005881
   13  C  3  X    0.002636  -0.000124   0.000039   0.000259  -0.003967
   14  C  3  Y   -0.003594  -0.000055   0.000070  -0.000169  -0.001078
   15  C  3  Z    0.000236  -0.000011  -0.000008  -0.000256   0.001259
   16  C  4  S   -0.000496  -0.000091  -0.001673  -0.078583   0.988844
   17  C  4  S    0.000086  -0.000036   0.000001  -0.008733   0.036622
   18  C  4  X    0.000187   0.000031   0.000261  -0.000275  -0.000675
   19  C  4  Y   -0.000230  -0.000020  -0.000063  -0.004129   0.000188
   20  C  4  Z    0.000086  -0.000007   0.000139  -0.001185  -0.000172
   21  C  5  S   -0.000499  -0.000175  -0.003996   0.988755   0.079531
   22  C  5  S    0.000091  -0.000028  -0.005928   0.037534  -0.002854
   23  C  5  X    0.000154   0.000036   0.003910  -0.000652   0.000018
   24  C  5  Y    0.000204   0.000037  -0.001497  -0.000733   0.004064
   25  C  5  Z   -0.000141  -0.000014   0.000763   0.000274   0.001286
   26  C  6  S   -0.001248  -0.007005   0.991894   0.004809   0.002162
   27  C  6  S   -0.005744  -0.000155   0.037455  -0.005674  -0.000345
   28  C  6  X    0.002295  -0.000045  -0.000102  -0.004027  -0.000314
   29  C  6  Y    0.003436   0.000003  -0.000981   0.001299   0.000326
   30  C  6  Z   -0.000610   0.000012  -0.000096  -0.000765   0.000138
   31  H  7  S    0.000029  -0.006686  -0.000105  -0.000004  -0.000027
   32  H  8  S   -0.000122  -0.006778  -0.000072  -0.000004  -0.000006
   33  H  9  S   -0.000046  -0.006705  -0.000059  -0.000005   0.000002
   34  H 10  S    0.000086  -0.000058  -0.000047  -0.000131   0.000067
   35  H 11  S   -0.000053   0.000009   0.000018   0.000542  -0.006768
   36  H 12  S   -0.000122  -0.000004  -0.000130   0.000641  -0.006614
   37  H 13  S   -0.000129  -0.000011   0.000136  -0.006645  -0.000415
   38  H 14  S    0.000008   0.000011   0.000050  -0.006778  -0.000540
   39  H 15  S   -0.000174   0.000071  -0.006810  -0.000005   0.000041
   40  H 16  S    0.000019   0.000028  -0.006666   0.000094  -0.000146
   41  B 17  S    0.000008  -0.000004  -0.000005  -0.000009   0.000025
   42  B 17  S    0.000105   0.000017   0.000025   0.000041  -0.000046
   43  B 17  X    0.000086   0.000002  -0.000004   0.000028  -0.000186
   44  B 17  Y   -0.000040   0.000016   0.000026   0.000048  -0.000100
   45  B 17  Z    0.000108  -0.000006  -0.000003  -0.000027   0.000058
   46  H 18  S   -0.000059  -0.000006  -0.000001   0.000075   0.000076
   47  H 19  S   -0.000013   0.000016  -0.000000   0.000012  -0.000071
   48  H 20  S   -0.001789  -0.000045  -0.000098   0.000047   0.000031

                      6          7          8          9         10
                  -10.9994    -7.3835    -1.1296    -0.9963    -0.9366
                     A          A          A          A          A   
    1  C  1  S    0.000169  -0.000004  -0.055109  -0.154930  -0.018523
    2  C  1  S    0.000283   0.000027   0.148305   0.434499   0.053310
    3  C  1  X    0.000093   0.000019   0.047642   0.054361  -0.000774
    4  C  1  Y   -0.000030  -0.000019   0.001299   0.000692   0.025739
    5  C  1  Z    0.000010  -0.000021  -0.001565  -0.004950  -0.002970
    6  C  2  S   -0.001660   0.000030  -0.140033  -0.101206   0.006067
    7  C  2  S   -0.008129   0.000067   0.364679   0.286341  -0.015088
    8  C  2  X   -0.002659   0.000024   0.061878  -0.120546  -0.031385
    9  C  2  Y    0.004156   0.000073  -0.011405  -0.028017   0.190420
   10  C  2  Z   -0.000059   0.000096  -0.015633  -0.004024  -0.012759
   11  C  3  S    0.991963   0.000530  -0.106591  -0.013456   0.135235
   12  C  3  S    0.037033  -0.002990   0.261827   0.038607  -0.372580
   13  C  3  X   -0.001212  -0.000422  -0.009439  -0.088271  -0.019008
   14  C  3  Y    0.002297   0.000591   0.081711   0.016370  -0.021476
   15  C  3  Z   -0.000884  -0.002850  -0.014260   0.008369   0.021527
   16  C  4  S    0.002988   0.000049  -0.084678   0.091582   0.102509
   17  C  4  S   -0.005624   0.000082   0.216352  -0.252326  -0.294831
   18  C  4  X    0.003954   0.000062  -0.046028  -0.002681   0.055992
   19  C  4  Y    0.001132  -0.000001   0.033345  -0.053212   0.050995
   20  C  4  Z   -0.001112  -0.000311   0.017397  -0.011143  -0.008345
   21  C  5  S    0.001102  -0.000011  -0.089115   0.110711  -0.054928
   22  C  5  S    0.000042   0.000196   0.226906  -0.306209   0.157263
   23  C  5  X    0.000278   0.000087  -0.052720   0.017942  -0.061332
   24  C  5  Y    0.000130   0.000064  -0.026801   0.034953   0.093441
   25  C  5  Z   -0.000190   0.000096  -0.012077   0.011939   0.002293
   26  C  6  S    0.000391  -0.000006  -0.110397   0.030913  -0.152217
   27  C  6  S    0.000238   0.000005   0.288067  -0.083153   0.442366
   28  C  6  X   -0.000079   0.000003   0.002440  -0.087877   0.006938
   29  C  6  Y    0.000004  -0.000032  -0.070912  -0.005688   0.014088
   30  C  6  Z    0.000007   0.000048   0.008017  -0.001475  -0.000635
   31  H  7  S   -0.000127  -0.000072   0.026073   0.103282   0.001182
   32  H  8  S   -0.000013  -0.000006   0.027964   0.107633   0.022719
   33  H  9  S   -0.000022   0.000088   0.025554   0.100523   0.021557
   34  H 10  S   -0.006515  -0.000647   0.043430   0.019122  -0.104188
   35  H 11  S   -0.000149  -0.000140   0.039933  -0.058402  -0.076159
   36  H 12  S    0.000060  -0.000415   0.033119  -0.056575  -0.077622
   37  H 13  S   -0.000157  -0.000030   0.035650  -0.070132   0.046505
   38  H 14  S   -0.000003  -0.000562   0.041761  -0.069002   0.037647
   39  H 15  S   -0.000016   0.000012   0.054808  -0.017059   0.126653
   40  H 16  S   -0.000042   0.000068   0.047544  -0.015547   0.127554
   41  B 17  S    0.000409   0.991081  -0.008518  -0.001424   0.016480
   42  B 17  S   -0.002699   0.035280   0.017373   0.003608  -0.035908
   43  B 17  X    0.000252   0.000823  -0.000511  -0.004172  -0.001659
   44  B 17  Y   -0.000728  -0.001645   0.002595   0.001286   0.000602
   45  B 17  Z    0.002562  -0.000210  -0.008992  -0.001690   0.017984
   46  H 18  S    0.000177  -0.006350   0.003736  -0.002270  -0.010788
   47  H 19  S    0.000277  -0.006378   0.002758   0.001754  -0.010133
   48  H 20  S    0.000017  -0.002532   0.008870   0.008936  -0.001388

                     11         12         13         14         15
                   -0.8809    -0.7616    -0.6874    -0.6400    -0.6282
                     A          A          A          A          A   
    1  C  1  S   -0.139074   0.007675   0.024381   0.006443   0.031425
    2  C  1  S    0.411725  -0.024022  -0.078287  -0.021822  -0.110462
    3  C  1  X   -0.060946   0.020407   0.154373   0.056044   0.321404
    4  C  1  Y    0.007106  -0.059519   0.052112   0.100794  -0.023974
    5  C  1  Z   -0.006142   0.017669  -0.002350   0.104587  -0.001041
    6  C  2  S    0.075626  -0.021306  -0.110043  -0.015764  -0.061524
    7  C  2  S   -0.227968   0.064030   0.370630   0.061888   0.221835
    8  C  2  X   -0.182029   0.014765   0.019004  -0.044411  -0.295496
    9  C  2  Y    0.030367  -0.192716   0.090898   0.158411  -0.021618
   10  C  2  Z    0.009467   0.049840  -0.023212   0.134238  -0.015846
   11  C  3  S    0.075717  -0.041312   0.090332   0.014675   0.020625
   12  C  3  S   -0.209153   0.118891  -0.299506  -0.032099  -0.062004
   13  C  3  X    0.083856  -0.154327  -0.000770   0.089094  -0.161685
   14  C  3  Y   -0.057121   0.027947   0.245984  -0.031455  -0.134476
   15  C  3  Z   -0.003533   0.055509  -0.009539   0.147598  -0.003192
   16  C  4  S   -0.089202   0.114619  -0.018608  -0.014402  -0.013787
   17  C  4  S    0.262836  -0.359872   0.056352   0.047331   0.047858
   18  C  4  X    0.074788  -0.025333   0.055510   0.087756   0.223852
   19  C  4  Y    0.055632   0.112734   0.121248  -0.096685  -0.068280
   20  C  4  Z   -0.001273   0.084997  -0.014607   0.183631  -0.089222
   21  C  5  S   -0.098753  -0.121683  -0.010640   0.014275  -0.012549
   22  C  5  S    0.292936   0.384207   0.034563  -0.047490   0.042152
   23  C  5  X    0.066222   0.061168   0.027825  -0.002052   0.242064
   24  C  5  Y   -0.050698   0.094219  -0.134887  -0.066021   0.092172
   25  C  5  Z   -0.005097   0.087489   0.000433   0.222265  -0.056343
   26  C  6  S    0.060471   0.065306   0.061049  -0.000707   0.010291
   27  C  6  S   -0.178954  -0.207116  -0.203632   0.000584  -0.030446
   28  C  6  X    0.080853   0.151598  -0.080404  -0.122241  -0.112397
   29  C  6  Y    0.032362  -0.037732  -0.253531   0.025576   0.138642
   30  C  6  Z    0.005017   0.076738   0.032981   0.251287  -0.066816
   31  H  7  S    0.126693   0.024988  -0.109472  -0.084439  -0.108701
   32  H  8  S    0.136921  -0.039299  -0.051218  -0.066509  -0.130565
   33  H  9  S    0.130359  -0.026043  -0.049544   0.078998  -0.140990
   34  H 10  S   -0.057630   0.064375  -0.273270  -0.034422   0.104199
   35  H 11  S    0.076628  -0.178031   0.024239  -0.113327   0.099823
   36  H 12  S    0.089694  -0.151445  -0.000536   0.157200   0.141508
   37  H 13  S    0.099599   0.168881  -0.022387  -0.113497   0.202656
   38  H 14  S    0.083304   0.181445   0.010919   0.152936   0.001997
   39  H 15  S   -0.054733  -0.137229  -0.145093  -0.169060   0.081695
   40  H 16  S   -0.047421  -0.081013  -0.181102   0.146258   0.052246
   41  B 17  S    0.008178  -0.016053   0.055981  -0.101731  -0.006078
   42  B 17  S   -0.018796   0.038786  -0.136149   0.258754   0.013923
   43  B 17  X    0.004206  -0.007555  -0.001821   0.031723  -0.013897
   44  B 17  Y   -0.000924   0.002099   0.031804  -0.015093  -0.013570
   45  B 17  Z    0.010184  -0.010094   0.022950   0.001782   0.004190
   46  H 18  S   -0.000850   0.009765  -0.059056   0.153467   0.002319
   47  H 19  S   -0.006007   0.016720  -0.076825   0.122698   0.021334
   48  H 20  S   -0.008126   0.016234   0.001256   0.082625   0.007277

                     16         17         18         19         20
                   -0.5880    -0.5683    -0.5532    -0.5310    -0.4937
                     A          A          A          A          A   
    1  C  1  S    0.000555  -0.004387   0.000149   0.000770   0.007138
    2  C  1  S   -0.001836   0.015878  -0.000761  -0.002629  -0.024693
    3  C  1  X   -0.008589  -0.024056  -0.008012   0.034458  -0.200238
    4  C  1  Y    0.054556  -0.228440   0.431213   0.008792   0.160854
    5  C  1  Z   -0.080638   0.414500   0.254810  -0.219118  -0.068799
    6  C  2  S   -0.002567  -0.005870   0.005950  -0.006809  -0.014337
    7  C  2  S    0.010888   0.016167  -0.018133   0.026516   0.038426
    8  C  2  X    0.023208   0.018656  -0.011778  -0.014047   0.248116
    9  C  2  Y    0.055920  -0.118105   0.131725   0.004403  -0.264548
   10  C  2  Z   -0.045921   0.145121   0.041627  -0.001213   0.058458
   11  C  3  S    0.023858   0.030536  -0.033678   0.018123  -0.023416
   12  C  3  S   -0.075800  -0.113104   0.124996  -0.065903   0.065936
   13  C  3  X    0.007855  -0.064504   0.031873  -0.032724  -0.050626
   14  C  3  Y    0.011495   0.115551  -0.121396   0.009955   0.351562
[...]
 19   H            X  0.00009692  0.00273380 -0.00258934 -0.45969147  0.42278944
                   Y  0.00539914 -0.00423685 -0.00026438 -0.51237469  0.47219839
                   Z  0.01382162 -0.00291487 -0.00930585  0.13435101 -0.12271309
 20   H            X -0.00780766  0.00369672  0.00066287 -0.00017320  0.00888699
                   Y  0.01577793 -0.00408618  0.00075653 -0.00054938  0.00503010
                   Z -0.03082844  0.00824920 -0.00741383  0.00156008  0.00071710

 TRANS. SAYVETZ    X  0.00000012 -0.00000013  0.00000030 -0.00000014 -0.00000000
                   Y -0.00000044  0.00000020  0.00000008 -0.00000002  0.00000001
                   Z  0.00000158 -0.00000032  0.00000037 -0.00000005  0.00000006
               TOTAL  0.00000164  0.00000040  0.00000048  0.00000015  0.00000006

   ROT. SAYVETZ    X -0.00748957 -0.00106284 -0.01083551  0.00453719  0.01003050
                   Y  0.00281294 -0.00031959 -0.00281737  0.00281976 -0.01112516
                   Z  0.00144605 -0.00195355 -0.00072897  0.00092844 -0.03073152
               TOTAL  0.00813003  0.00224681  0.01121950  0.00542210  0.03418781

                           51          52          53          54          55
       FREQUENCY:      3567.53     3595.95     3606.33     3629.46     3712.86  
        SYMMETRY:         A           A           A           A           A   
    REDUCED MASS:      1.03944     1.06706     1.06776     1.06814     1.10991
    IR INTENSITY:      0.00966     0.11598     0.02144     0.02229     0.02211

  1   C            X -0.04870551  0.00010151 -0.00000735 -0.00009176 -0.00007437
                   Y -0.00020861  0.00004016 -0.00002994  0.00007312 -0.00009490
                   Z -0.01964282 -0.00000393  0.00037875 -0.00010170  0.00018580
  2   C            X  0.00287603 -0.00043217 -0.00081254  0.00057598  0.00017504
                   Y -0.00005137  0.00003476 -0.00189395  0.00010953  0.00022010
                   Z  0.00008819  0.00029299 -0.00014671 -0.00001761 -0.00026037
  3   C            X  0.00009375 -0.00074245 -0.00011402 -0.00019579 -0.00091616
                   Y -0.00032907  0.00194666  0.00001311 -0.00043521 -0.00391103
                   Z  0.00000256  0.00102930  0.00011720 -0.00019657 -0.00126982
  4   C            X  0.00008315  0.04208714  0.00141960 -0.00116794 -0.04436115
                   Y -0.00005730 -0.03095373 -0.00070766  0.00372711  0.03570967
                   Z -0.00008403 -0.04778943 -0.00132456  0.00640492 -0.07110479
  5   C            X  0.00007857 -0.00479699 -0.00303450 -0.05758978 -0.00178040
                   Y  0.00005857 -0.00081919 -0.00520962 -0.03686879 -0.00359471
                   Z  0.00000361  0.00137492  0.00057239 -0.01830904  0.00542321
  6   C            X  0.00016355  0.00111766 -0.02761683  0.00500979  0.00032604
                   Y  0.00004741 -0.00176245  0.05767665 -0.00433844  0.00018914
                   Z  0.00012045  0.00088480 -0.03116779  0.00498458  0.00211207
  7   H            X  0.20759381 -0.00012321  0.00106864  0.00010249  0.00067604
                   Y  0.44258628 -0.00055929  0.00115769  0.00019951  0.00161881
                   Z -0.17601401  0.00021345 -0.00021101 -0.00007340 -0.00058497
  8   H            X  0.10817874 -0.00017749 -0.00011104  0.00017937 -0.00030178
                   Y -0.04464298  0.00005158  0.00013612 -0.00009684  0.00011867
                   Z  0.64307348 -0.00084386 -0.00219686  0.00137517 -0.00164572
  9   H            X  0.22343577 -0.00036554  0.00046084  0.00021557  0.00065173
                   Y -0.39452806  0.00055718 -0.00051144 -0.00056829 -0.00093986
                   Z -0.23767255  0.00018176 -0.00043569 -0.00032841 -0.00043872
 10   H            X  0.00173071 -0.00919679 -0.00088329  0.00477813  0.02020110
                   Y  0.00405426 -0.02377850 -0.00334176  0.00987506  0.04214230
                   Z  0.00164683 -0.00822308 -0.00212649  0.00344619  0.01717986
 11   H            X  0.00012875 -0.05524634 -0.00169609  0.00631227 -0.04463425
                   Y  0.00006090  0.01611978  0.00112941  0.00116453  0.01566846
                   Z  0.00077135  0.77115724  0.02195841 -0.07179720  0.55183163
 12   H            X -0.00118800 -0.41587125 -0.01019419  0.01386166  0.55719048
                   Y  0.00071349  0.32038787  0.00711091 -0.01219188 -0.42912036
                   Z -0.00058906 -0.22689711 -0.00555110  0.00926671  0.28999245
 13   H            X -0.00059021  0.03455526  0.04071777  0.36347728  0.03299051
                   Y -0.00068914  0.03472851  0.04575798  0.39311327  0.03353128
                   Z  0.00071996 -0.03741034 -0.04551834 -0.41671378 -0.03617849
 14   H            X -0.00032593  0.01396218  0.02108967  0.27068068 -0.00933401
                   Y -0.00001038  0.00423770 -0.00108463  0.01270792  0.00299800
                   Z -0.00077991  0.03492181  0.03945864  0.61999396 -0.02198716
 15   H            X  0.00002305 -0.00695520  0.23213073 -0.02009572 -0.00469306
                   Y  0.00005961  0.00908328 -0.29337583  0.02977210  0.00580377
                   Z -0.00014235 -0.02310264  0.72572394 -0.07363731 -0.01464156
 16   H            X  0.00005040 -0.00373445  0.07788566 -0.00427047  0.00342931
                   Y -0.00108540  0.01392815 -0.34826790  0.01348388 -0.01185750
                   Z -0.00074815  0.01439232 -0.35904797  0.01600529 -0.01183720
 17   B            X  0.00013619 -0.00027422 -0.00020703 -0.00028364 -0.00020219
                   Y -0.00005044 -0.00002375 -0.00010337 -0.00003680  0.00002069
                   Z  0.00001186  0.00026975  0.00010947 -0.00020689 -0.00001593
 18   H            X  0.00013451  0.00110777  0.00120059  0.00385952  0.00036724
                   Y  0.00027020  0.00020419  0.00029301  0.00170983 -0.00008231
                   Z  0.00019778  0.00007208  0.00009946  0.00084335  0.00005358
 19   H            X -0.00014634  0.00059146  0.00065553  0.00050857  0.00084627
                   Y -0.00021110  0.00022012  0.00031399  0.00050508  0.00056632
                   Z -0.00000966 -0.00041586 -0.00018239 -0.00001589  0.00009813
 20   H            X  0.00018108 -0.00008853 -0.00088653  0.00002226  0.00004631
                   Y  0.00040805  0.00030843 -0.00172657  0.00000431 -0.00023586
                   Z  0.00174309 -0.00057560  0.00274072  0.00004651  0.00125062

 TRANS. SAYVETZ    X -0.00000054  0.00000015 -0.00000031 -0.00000006 -0.00000002
                   Y  0.00000044  0.00000012  0.00000043 -0.00000016  0.00000004
                   Z -0.00000013 -0.00000032 -0.00000017  0.00000027 -0.00000016
               TOTAL  0.00000071  0.00000037  0.00000055  0.00000032  0.00000016

   ROT. SAYVETZ    X  0.00060431  0.00021654  0.00045967 -0.00005399 -0.00031937
                   Y  0.00023055  0.00001698  0.00022380  0.00006871  0.00020936
                   Z  0.00001790 -0.00005090  0.00033339 -0.00005019 -0.00005113
               TOTAL  0.00064704  0.00022309  0.00061035  0.00010077  0.00038528

                           56          57          58          59          60
       FREQUENCY:      3738.13     3739.02     3740.79     3748.21     3769.52  
        SYMMETRY:         A           A           A           A           A   
    REDUCED MASS:      1.09926     1.10771     1.10732     1.11125     1.11033
    IR INTENSITY:      0.42106     0.08789     0.01628     0.01021     0.00976

  1   C            X -0.00304525 -0.00152812  0.02266900  0.00046099  0.00433462
                   Y -0.00138877 -0.00141520  0.01397925  0.00030422 -0.09049404
                   Z  0.01281927  0.00430001 -0.08525993 -0.00167261 -0.01373061
  2   C            X -0.00128176  0.00158493 -0.00099270 -0.00035960 -0.00035521
                   Y  0.00331575 -0.00024408  0.00058344  0.00034962  0.00044924
                   Z  0.00040829 -0.00043737 -0.00041369 -0.00009333 -0.00010432
  3   C            X -0.02844881  0.01572152 -0.00348043 -0.00130757 -0.00066286
                   Y -0.06454429  0.03529366 -0.00773822 -0.00309419 -0.00087270
                   Z -0.02400232  0.01312003 -0.00273805 -0.00106592 -0.00026257
  4   C            X  0.00507844 -0.00411067  0.00043512 -0.00194835  0.00008773
                   Y -0.00074003  0.00154154  0.00006707  0.00149272  0.00002491
                   Z  0.00154082 -0.00115470  0.00003168 -0.00494466  0.00007347
  5   C            X -0.00107244 -0.00359352 -0.00046626  0.00690863  0.00001573
                   Y -0.00349160 -0.00626779 -0.00146986  0.03058145  0.00008033
                   Z  0.01105537  0.01450735  0.00411677 -0.08418576 -0.00011012
  6   C            X -0.00060188 -0.00031690 -0.00033488 -0.00092305  0.00027637
                   Y -0.01526892 -0.03052951 -0.00355382 -0.00595990  0.00015649
                   Z -0.03780414 -0.07277895 -0.00907435 -0.01772833  0.00033634
  7   H            X  0.02644127  0.01298774 -0.19844967 -0.00423065  0.25151980
                   Y  0.05655588  0.02792615 -0.42470255 -0.00891406  0.53386923
                   Z -0.02135195 -0.01067941  0.16201241  0.00342476 -0.21266678
  8   H            X -0.01727144 -0.00500463  0.11319383  0.00242183  0.00795768
                   Y  0.00696789  0.00213503 -0.04566939 -0.00090046 -0.00720977
                   Z -0.10315991 -0.03259642  0.67808707  0.01342656  0.05042856
  9   H            X  0.02801178  0.00632787 -0.16994783 -0.00310873 -0.30728737
                   Y -0.04851100 -0.01266051  0.30402618  0.00570196  0.54353084
                   Z -0.02741833 -0.00746792  0.17596918  0.00337885  0.32571403
 10   H            X  0.32766036 -0.17838525  0.03906097  0.01403489  0.00409401
                   Y  0.71095817 -0.38512598  0.08460579  0.03155719  0.00949315
                   Z  0.27361922 -0.14887920  0.03281716  0.01213652  0.00365004
 11   H            X -0.00095121  0.00057168 -0.00016537 -0.00446250 -0.00011328
                   Y -0.00139802 -0.00016036 -0.00028222  0.00533437 -0.00005768
                   Z -0.00932554  0.00286296 -0.00056973  0.05029815 -0.00025011
 12   H            X -0.03248064  0.02828510 -0.00245781  0.02799521 -0.00065231
                   Y  0.02397436 -0.01984887  0.00174605 -0.02306620  0.00049876
                   Z -0.01612809  0.01439011 -0.00108841  0.01546867 -0.00030284
 13   H            X  0.04606073  0.06967211  0.01728573 -0.34750694 -0.00021268
                   Y  0.04976390  0.07588978  0.01874366 -0.37357577 -0.00035457
                   Z -0.05140083 -0.07792233 -0.01940856  0.38995466  0.00035687
 14   H            X -0.03196271 -0.03505401 -0.01197052  0.26824180  0.00021457
                   Y -0.00251415 -0.00221083 -0.00082623  0.01640725  0.00003827
                   Z -0.07555095 -0.08602087 -0.02803496  0.60106295  0.00067910
 15   H            X  0.06260544  0.11874588  0.01512379  0.03827420 -0.00032621
                   Y -0.07930838 -0.15108104 -0.01982955 -0.04546245  0.00048823
                   Z  0.19436416  0.36977435  0.04800566  0.10592597 -0.00137333
 16   H            X -0.05732969 -0.11216804 -0.01335382 -0.02598456  0.00059411
                   Y  0.25253253  0.48811744  0.05942803  0.10943577 -0.00144550
                   Z  0.25329053  0.48845915  0.05958713  0.11086410 -0.00169352
 17   B            X -0.00012610  0.00012299  0.00013734 -0.00036444  0.00013814
                   Y  0.00056945 -0.00057397 -0.00004781 -0.00014816 -0.00007996
                   Z  0.00049265 -0.00034576  0.00012767 -0.00007657 -0.00000658
 18   H            X -0.00113211 -0.00000496 -0.00067990  0.00312152  0.00010511
                   Y  0.00018345  0.00011836 -0.00017151  0.00174173  0.00023378
                   Z -0.00012860  0.00028506  0.00015889  0.00038543  0.00024390
 19   H            X  0.00111981 -0.00046585 -0.00007036  0.00114295 -0.00016137
                   Y  0.00083890 -0.00001830  0.00030221  0.00100729  0.00009187
                   Z -0.00066699  0.00082935  0.00000339 -0.00006119  0.00020671
 20   H            X  0.00032976  0.00078477 -0.00136642  0.00033332 -0.00125325
                   Y  0.00149900  0.00249470  0.00091154  0.00047055  0.00111949
                   Z  0.00691564 -0.00388848  0.00242056  0.00063835 -0.00063250

 TRANS. SAYVETZ    X  0.00000008  0.00000011 -0.00000010  0.00000004 -0.00000003
                   Y -0.00000025  0.00000005 -0.00000009  0.00000001 -0.00000006
                   Z -0.00000010  0.00000019 -0.00000003 -0.00000007  0.00000009
               TOTAL  0.00000028  0.00000022  0.00000014  0.00000008  0.00000011

   ROT. SAYVETZ    X -0.00806692  0.00438194 -0.00072242 -0.00031416 -0.00022911
                   Y  0.00496889 -0.00272877  0.00081275  0.00025880 -0.00005088
                   Z -0.00073016 -0.00014383  0.00001762 -0.00021342  0.00012656
               TOTAL  0.00950254  0.00516413  0.00108755  0.00045959  0.00026664

 REFERENCE ON SAYVETZ CONDITIONS - A. SAYVETZ, J.CHEM.PHYS., 7, 383-389(1939).

 NOTE - THE MODES J,K ARE ORTHONORMALIZED ACCORDING TO
 SUM ON I   M(I) * (X(I,J)*X(I,K) + Y(I,J)*Y(I,K) + Z(I,J)*Z(I,K)) = DELTA(J,K)

  MODE FREQ(CM**-1)  SYMMETRY  RED. MASS  IR INTENS.
     1    1093.917    A        2.172000    3.690300
     2     523.783    A        1.211054    6.610907
     3       0.002    A        4.805545    0.000000
     4       0.003    A        4.805527    0.000000
     5       0.006    A        4.805544    0.000000
     6      44.975    A        3.200442    0.012196
     7      90.975    A        2.996221    0.009184
     8     139.671    A        2.696969    0.057239
     9     214.555    A        1.584879    0.006289
    10     241.850    A        1.207181    0.014146
    11     273.986    A        2.101759    0.013500
    12     320.775    A        2.686975    0.012832
    13     364.807    A        2.408714    0.066951
    14     420.380    A        3.278443    0.011951
    15     528.228    A        2.635403    0.522082
    16     639.871    A        2.388813    0.288307
    17     717.858    A        1.591369    0.589252
    18     733.405    A        1.294613    0.294447
    19     785.405    A        1.515817    0.337749
    20     910.473    A        1.247258    0.180499
    21     955.773    A        1.908887    0.317382
    22    1014.023    A        1.988939    0.020737
    23    1042.265    A        1.356902    0.200985
    24    1054.655    A        1.471693    1.487170
    25    1093.882    A        2.065202    0.029361
    26    1125.021    A        1.711436    0.076907
    27    1198.408    A        1.347269    0.308191
    28    1216.673    A        1.322411    1.502959
    29    1242.282    A        1.428315    0.836640
    30    1255.545    A        1.226663    4.705100
    31    1293.542    A        1.090810    0.454485
    32    1307.186    A        1.413821    1.398043
    33    1327.695    A        1.187300    1.781303
    34    1362.933    A        1.212499    0.118563
    35    1377.302    A        1.824914    0.049775
    36    1471.919    A        1.238010    0.029603
    37    1479.070    A        1.368345    0.038975
    38    1502.781    A        1.535137    0.096901
    39    1614.802    A        1.823146    0.268233
    40    1621.156    A        2.214982    0.119323
    41    1634.425    A        1.593320    0.048673
    42    1711.952    A        1.309754    0.083064
    43    1758.118    A        3.015535    0.401656
    44    1803.396    A        1.112959    0.014707
    45    1809.345    A        1.050198    0.042959
    46    1812.107    A        1.101393    0.020731
    47    1821.583    A        1.105430    0.003029
    48    1837.648    A        1.120760    0.015742
    49    3187.023    A        1.037208    0.034378
    50    3406.854    A        1.151178    0.174307
    51    3567.534    A        1.039435    0.009663
    52    3595.949    A        1.067056    0.115980
    53    3606.330    A        1.067756    0.021443
    54    3629.460    A        1.068138    0.022286
    55    3712.861    A        1.109906    0.022114
    56    3738.127    A        1.099262    0.421065
    57    3739.015    A        1.107708    0.087887
    58    3740.790    A        1.107320    0.016281
    59    3748.208    A        1.111253    0.010210
    60    3769.519    A        1.110326    0.009758

     -------------------------------
     THERMOCHEMISTRY AT T=  298.15 K
     -------------------------------

 USING IDEAL GAS, RIGID ROTOR, HARMONIC NORMAL MODE APPROXIMATIONS.
 P=  1.01325E+05 PASCAL.
 ALL FREQUENCIES ARE SCALED BY   1.00000
 THE MOMENTS OF INERTIA ARE (IN AMU*BOHR**2)
            509.88686           777.29538           931.22544
 THE ROTATIONAL SYMMETRY NUMBER IS  1.0
 THE ROTATIONAL CONSTANTS ARE (IN GHZ)
      3.53625     2.31970     1.93625
   2 IMAGINARY FREQUENCY VIBRATION(S) IS(ARE) EXCLUDED
     FROM THE FOLLOWING THERMOCHEMICAL ANALYSIS.
      9 -     60 VIBRATIONAL MODES ARE USED IN THERMOCHEMISTRY.
 THE HARMONIC ZERO POINT ENERGY IS (SCALED BY   1.000)
        0.203529 HARTREE/MOLECULE    44669.375845 CM**-1/MOLECULE 
      127.716283 KCAL/MOL              534.364926 KJ/MOL

               Q               LN Q
 ELEC.     1.00000E+00       0.000000
 TRANS.    3.70351E+07      17.427377
 ROT.      2.17470E+05      12.289815
 VIB.      7.23079E+00       1.978349
 TOT.      5.82369E+13      31.695541

              E         H         G         CV        CP        S
           KJ/MOL    KJ/MOL    KJ/MOL   J/MOL-K   J/MOL-K   J/MOL-K
 ELEC.      0.000     0.000     0.000     0.000     0.000     0.000
 TRANS.     3.718     6.197   -43.201    12.472    20.786   165.684
 ROT.       3.718     3.718   -30.466    12.472    12.472   114.654
 VIB.     543.647   543.647   529.461    78.452    78.452    47.580
 TOTAL    551.084   553.563   455.794   103.395   111.710   327.919
 VIB. THERMAL CORRECTION E(T)-E(0) = H(T)-H(0) =      9281.871 J/MOL

              E         H         G         CV        CP        S
         KCAL/MOL  KCAL/MOL  KCAL/MOL CAL/MOL-K CAL/MOL-K CAL/MOL-K
 ELEC.      0.000     0.000     0.000     0.000     0.000     0.000
 TRANS.     0.889     1.481   -10.325     2.981     4.968    39.600
 ROT.       0.889     0.889    -7.281     2.981     2.981    27.403
 VIB.     129.935   129.935   126.544    18.751    18.751    11.372
 TOTAL    131.712   132.305   108.937    24.712    26.699    78.374
 VIB. THERMAL CORRECTION E(T)-E(0) = H(T)-H(0) =      2218.420 CAL/MOL

     *******************************************************
     * THIS IS NOT A STATIONARY POINT ON THE MOLECULAR PES *
     *     THE VIBRATIONAL ANALYSIS IS NOT VALID !!!       *
     *******************************************************
 ......END OF NORMAL COORDINATE ANALYSIS......
 STEP CPU TIME =     0.01 TOTAL CPU TIME =        117.4 (      2.0 MIN)
 TOTAL WALL CLOCK TIME=        118.5 SECONDS, CPU UTILIZATION IS    99.12%
               580000  WORDS OF DYNAMIC MEMORY USED
 EXECUTION OF GAMESS TERMINATED NORMALLY Mon Nov 15 06:15:11 2021
 DDI: 263640 bytes (0.3 MB / 0 MWords) used by master data server.

 ----------------------------------------
 CPU timing information for all processes
 ========================================
 0: 115.173 + 2.255 = 117.428
 ----------------------------------------
 ddikick.x: exited gracefully.
----- accounting info -----
Files used on the master node chemcompute-node-0.novalocal were:
-rw-r--r--. 1 chemcomp chemcomp     1369 Nov 15 06:13 /scratch/306695/342709.F05
-rw-rw-r--. 1 chemcomp chemcomp  7920704 Nov 15 06:14 /scratch/306695/342709.F08
-rw-rw-r--. 1 chemcomp chemcomp 85196800 Nov 15 06:15 /scratch/306695/342709.F10
-rw-rw-r--. 1 chemcomp chemcomp   564960 Nov 15 06:15 /scratch/306695/342709.F18
Mon Nov 15 06:15:14 UTC 2021
0.141u 0.147s 2:02.31 0.2%	0+0k 8+216io 0pf+0w
Finishing Up...
Looking for IR data...
Looking for Raman data...
vibramans not found
Looking for thermodynamics data...
Looking for UV-Vis data...
306695
