----- GAMESS execution script 'rungms' -----
This job is running on host chemcompute-node-0.novalocal
under operating system Linux at Mon Nov 15 03:59:16 UTC 2021
SLURM has assigned the following compute nodes to this run:
chemcompute-node-0
Available scratch disk space (Kbyte units) at beginning of the job is
Filesystem     1K-blocks     Used Available Use% Mounted on
/dev/sda1       62903276 16745252  46158024  27% /
GAMESS temporary binary files will be written to /scratch/306651
GAMESS supplementary output files will be written to /data/slurm/342665
Copying input file 342665.inp to your run's scratch directory...
The generated host list is
chemcompute-node-0.novalocal

 Distributed Data Interface kickoff program.
 Initiating 1 compute processes on 1 nodes to run the following command:
 /data/gamess-2019R1-ddi/gamess.00.x 342665 

          ******************************************************
          *         GAMESS VERSION = 30 JUN 2019 (R1)          *
          *             FROM IOWA STATE UNIVERSITY             *
          * M.W.SCHMIDT, K.K.BALDRIDGE, J.A.BOATZ, S.T.ELBERT, *
          *   M.S.GORDON, J.H.JENSEN, S.KOSEKI, N.MATSUNAGA,   *
          *          K.A.NGUYEN, S.J.SU, T.L.WINDUS,           *
          *       TOGETHER WITH M.DUPUIS, J.A.MONTGOMERY       *
          *         J.COMPUT.CHEM.  14, 1347-1363(1993)        *
          **************** 64 BIT LINUX VERSION ****************

  SINCE 1993, STUDENTS AND POSTDOCS WORKING AT IOWA STATE UNIVERSITY
  AND ALSO IN THEIR VARIOUS JOBS AFTER LEAVING ISU HAVE MADE IMPORTANT
  CONTRIBUTIONS TO THE CODE:
     IVANA ADAMOVIC, CHRISTINE AIKENS, YURI ALEXEEV, POOJA ARORA,
     ANDREY ASADCHEV, ROB BELL, PRADIPTA BANDYOPADHYAY, JONATHAN BENTZ,
     COLLEEN BERTONI, BRETT BODE, KURT BRORSEN, CALEB CARLIN, GALINA CHABAN,
     WEI CHEN, CHEOL HO CHOI, PAUL DAY, ALBERT DEFUSCO, NUWAN DESILVA,
     TIM DUDLEY, DMITRI FEDOROV, ALEX FINDLATER, GRAHAM FLETCHER, 
     MARK FREITAG, KURT GLAESEMANN, ANASTASIA GUNINA,
     DAN KEMP, GRANT MERRILL, NORIYUKI MINEZAWA, JONATHAN MULLIN,
     TAKESHI NAGATA, SEAN NEDD, HEATHER NETZLOFF, BOSILJKA NJEGIC, RYAN OLSON,
     MIKE PAK, BUU PHAM,
     SPENCER PRUITT, LUKE ROSKOP, JIM SHOEMAKER, LYUDMILA SLIPCHENKO,
     TONY SMITH, SAROM SOK LEANG, JIE SONG, TETSUYA TAKETSUGU, SIMON WEBB,
     PENG XU, SOOHAENG YOO, FEDERICO ZAHARIEV

  ADDITIONAL CODE HAS BEEN PROVIDED BY COLLABORATORS IN OTHER GROUPS:
     IOWA STATE UNIVERSITY:
          JOE IVANIC, AARON WEST, LAIMUTIS BYTAUTAS, KLAUS RUEDENBERG
     UNIVERSITY OF TOKYO: KIMIHIKO HIRAO, TAKAHITO NAKAJIMA,
          TAKAO TSUNEDA, MUNEAKI KAMIYA, SUSUMU YANAGISAWA,
          KIYOSHI YAGI, MAHITO CHIBA, SEIKEN TOKURA, NAOAKI KAWAKAMI
     UNIVERSITY OF AARHUS: FRANK JENSEN
     UNIVERSITY OF IOWA: VISVALDAS KAIRYS, HUI LI
     NATIONAL INST. OF STANDARDS AND TECHNOLOGY: WALT STEVENS, DAVID GARMER
     UNIVERSITY OF PISA: BENEDETTA MENNUCCI, JACOPO TOMASI
     UNIVERSITY OF MEMPHIS: HENRY KURTZ, PRAKASHAN KORAMBATH
     UNIVERSITY OF ALBERTA: TOBY ZENG, MARIUSZ KLOBUKOWSKI
     UNIVERSITY OF NEW ENGLAND: MARK SPACKMAN
     MIE UNIVERSITY: HIROAKI UMEDA
     NAT. INST. OF ADVANCED INDUSTRIAL SCIENCE AND TECHNOLOGY: KAZUO KITAURA
     MICHIGAN STATE UNIVERSITY:
          KAROL KOWALSKI, MARTA WLOCH, JEFFREY GOUR, JESSE LUTZ,
          WEI LI, JUN SHEN, J. EMILIANO DEUSTUA, PIOTR PIECUCH
     UNIVERSITY OF MINNESOTA:
          YINAN SHU
     UNIVERSITY OF SILESIA: MONIKA MUSIAL, STANISLAW KUCHARSKI
     FACULTES UNIVERSITAIRES NOTRE-DAME DE LA PAIX:
          OLIVIER QUINET, BENOIT CHAMPAGNE
     UNIVERSITY OF CALIFORNIA - SANTA BARBARA: BERNARD KIRTMAN
     INSTITUTE FOR MOLECULAR SCIENCE:
          KAZUYA ISHIMURA, MICHIO KATOUDA, AND SHIGERU NAGASE
     UNIVERSITY OF NOTRE DAME: ANNA POMOGAEVA, DAN CHIPMAN
     KYUSHU UNIVERSITY:
          HARUYUKI NAKANO,
          FENG LONG GU, JACEK KORCHOWIEC, MARCIN MAKOWSKI, AND YURIKO AOKI,
          HIROTOSHI MORI AND EISAKU MIYOSHI
     PENNSYLVANIA STATE UNIVERSITY:
          TZVETELIN IORDANOV, CHET SWALINA, JONATHAN SKONE,
          SHARON HAMMES-SCHIFFER
     WASEDA UNIVERSITY:
          MASATO KOBAYASHI, TOMOKO AKAMA, TSUGUKI TOUMA,
          TAKESHI YOSHIKAWA, YASUHIRO IKABATA, JUNJI SEINO,
          YUYA NAKAJIMA, HIROMI NAKAI
     NANJING UNIVERSITY: SHUHUA LI
     UNIVERSITY OF NEBRASKA:
          PEIFENG SU, DEJUN SI, NANDUN THELLAMUREGE, YALI WANG, HUI LI
     UNIVERSITY OF ZURICH: ROBERTO PEVERATI, KIM BALDRIDGE
     N. COPERNICUS UNIVERSITY AND JACKSON STATE UNIVERSITY:
          MARIA BARYSZ
     UNIVERSITY OF COPENHAGEN: Jimmy Kromann, CASPER STEINMANN
     TOKYO INSTITUTE OF TECHNOLOGY: HIROYA NAKATA
     NAGOYA UNIVERSITY: YOSHIO NISHIMOTO, STEPHAN IRLE
     MOSCOW STATE UNIVERSITY: VLADIMIR MIRONOV
     A.N.NESMEYANOV INSTITUTE OF ORGANOELEMENT COMPOUNDS OF RUSSIAN ACADEMY OF SCIENCES:
          IGOR S. GERASIMOV

 EXECUTION OF GAMESS BEGUN Mon Nov 15 03:59:16 2021

            ECHO OF THE FIRST FEW INPUT CARDS -
 INPUT CARD>!File created by the GAMESS Input Deck Generator Plugin for Avogadro            
 INPUT CARD> $BASIS GBASIS=STO NGAUSS=3 $END                                                
 INPUT CARD> $CONTRL SCFTYP=RHF RUNTYP=IRC NZVAR=1 mult=1  ICHARG=0 $END                    
 INPUT CARD> $STATPT hssend=.t. OPTTOL=0.0005 NSTEP=50 $END                                 
 INPUT CARD> $STATPT HESS=calc ihrep=5 $END                                                 
 INPUT CARD> $FORCE nvib=2 $END                                                             
 INPUT CARD> $ZMAT DLC=.t. auto=.t. nonvdw(1)=4,10,7,8,4,3,3,7,8,9,9,10 $END                
 INPUT CARD>!$ZMAT IFZMAT(1)=1,4,10,1,7,8 fvalue(1)=2.00,2.00 $END                          
 INPUT CARD> $irc npoint=50 saddle=.t. tsengy=.t. forwrd=.f. opttol=0.0005 stride=0.2 $end  
 INPUT CARD>                                                                                
 INPUT CARD> $DATA                                                                          
 INPUT CARD>Title                                                                           
 INPUT CARD>C1                                                                              
 INPUT CARD>C     6.0     0.90799892     0.92424887     0.39297861                          
 INPUT CARD>C     6.0     1.38511527    -0.24338725     0.01537075                          
 INPUT CARD>C     6.0    -1.34842420     0.34934235    -0.38802248                          
 INPUT CARD>C     6.0    -0.57723820     1.21185660     0.41440514                          
 INPUT CARD>C     6.0     0.45906082    -1.36468160    -0.39943796                          
 INPUT CARD>O     8.0     0.85787338    -2.45531487    -0.78257829                          
 INPUT CARD>C     6.0    -1.03785598    -1.01828885    -0.29508957                          
 INPUT CARD>C     6.0    -1.34683597    -1.52591980     1.54010093                          
 INPUT CARD>C     6.0    -1.80875123    -0.38341326     2.21478677                          
 INPUT CARD>C     6.0    -0.99455434     0.76268345     2.24325204                          
 INPUT CARD>H     1.0     1.56704354     1.72791040     0.70315182                          
 INPUT CARD>H     1.0     2.44710398    -0.44552559    -0.03130915                          
 INPUT CARD>H     1.0    -2.35439372     0.64419490    -0.66051263                          
 INPUT CARD>H     1.0    -0.81715685     2.27076745     0.38121381                          
 INPUT CARD>H     1.0    -1.66435134    -1.71013212    -0.85155272                          
 INPUT CARD>H     1.0    -0.33742237    -1.84991753     1.76664519                          
 INPUT CARD>H     1.0    -2.03124738    -2.36296415     1.44907224                          
 INPUT CARD>H     1.0    -2.88099146    -0.22606085     2.23684144                          
 INPUT CARD>H     1.0     0.03208083     0.62798810     2.56321168                          
 INPUT CARD>H     1.0    -1.43260217     1.66757762     2.65251470                          
 INPUT CARD> $END                                                                           
 INPUT CARD>                                                                                
 INPUT CARD> $HESS                                                                          
 INPUT CARD>ENERGY IS     -416.0940640241 E(NUC) IS      511.5087460187                     
 INPUT CARD> 1  1 8.01289878E-01-5.99835756E-02 8.47834109E-03-2.46745395E-01 1.76258573E-01
 INPUT CARD> 1  2 5.88232222E-02-3.74429667E-02-7.04870180E-03 2.70439635E-04-3.01428784E-01
 INPUT CARD> 1  3 4.54921128E-02-2.78935348E-02 3.83392361E-02-7.05253938E-03-2.38475166E-04
 INPUT CARD> 1  4-7.51126432E-03-1.31549366E-02-4.01204451E-03-4.65230574E-04 3.01556998E-03
 INPUT CARD> 1  5-4.61414872E-03 4.20888295E-03-9.45646857E-04-3.44570854E-03 9.67406250E-04
 INPUT CARD> 1  6 1.05895522E-02 6.28649552E-04-1.55752485E-02-9.63874091E-03 2.82022828E-02
 INPUT CARD> 1  7-2.23807624E-01-1.74396327E-01-6.72250192E-02-4.04374171E-03 4.01874865E-02
 INPUT CARD> 1  8 1.08313155E-02-3.47737497E-04-3.19382125E-04-9.60928098E-04-5.73746114E-03
 INPUT CARD> 1  9-5.48170387E-03 4.64642146E-03-1.04019682E-03 1.06093765E-03 2.97953328E-04
 INPUT CARD> 1 10 1.64766664E-04-4.74200470E-04-1.83884171E-04-3.61075185E-04 6.56186538E-05
 INPUT CARD> 1 11-1.10325405E-03 1.97121527E-04 2.01220977E-04-4.20329781E-04-4.84710570E-04
 INPUT CARD> 1 12 7.52185121E-04-1.32962144E-03-1.75855619E-04 8.72497822E-04-7.51677249E-04
 INPUT CARD> 2  1-5.99835756E-02 1.08697558E+00 3.06011691E-01 2.10633527E-01-6.32002059E-01
    1000000 WORDS OF MEMORY AVAILABLE

     BASIS OPTIONS
     -------------
     GBASIS=STO          IGAUSS=       3      POLAR=NONE    
     NDFUNC=       0     NFFUNC=       0     DIFFSP=       F
     NPFUNC=       0      DIFFS=       F     BASNAM=        


     RUN TITLE
     ---------
 Title                                                                           

 THE POINT GROUP OF THE MOLECULE IS C1      
 THE ORDER OF THE PRINCIPAL AXIS IS     0

 ATOM      ATOMIC                      COORDINATES (BOHR)
           CHARGE         X                   Y                   Z
 C           6.0     1.7158691559        1.7465771088        0.7426218919
 C           6.0     2.6174883217       -0.4599352114        0.0290465057
 C           6.0    -2.5481522532        0.6601613174       -0.7332561643
 C           6.0    -1.0908220276        2.2900769104        0.7831121625
 C           6.0     0.8674991615       -2.5788742845       -0.7548282935
 O           8.0     1.6211456204       -4.6398723179       -1.4788585320
 C           6.0    -1.9612634169       -1.9242869029       -0.5576384291
 C           6.0    -2.5451509337       -2.8835703012        2.9103687511
 C           6.0    -3.4180442047       -0.7245460015        4.1853401165
 C           6.0    -1.8794351825        1.4412627359        4.2391316770
 H           1.0     2.9612829014        3.2652771873        1.3287642676
 H           1.0     4.6243559857       -0.8419212856       -0.0591657144
 H           1.0    -4.4491589980        1.2173518437       -1.2481878821
 H           1.0    -1.5442025355        4.2911282623        0.7203896436
 H           1.0    -3.1451679799       -3.2316811096       -1.6092013049
 H           1.0    -0.6376358214       -3.4958372316        3.3384753266
 H           1.0    -3.8385009615       -4.4653547623        2.7383494700
 H           1.0    -5.4442844324       -0.4271930631        4.2270173996
 H           1.0     0.0606239782        1.1867254326        4.8437677237
 H           1.0    -2.7072255507        3.1512647651        5.0125259614

          INTERNUCLEAR DISTANCES (ANGS.)
          ------------------------------

                1 C          2 C          3 C          4 C          5 C     

   1 C       0.0000000    1.3166631 *  2.4559979 *  1.5129794 *  2.4634675 *
   2 C       1.3166631 *  0.0000000    2.8260029 *  2.4754382 *  1.5122646 *
   3 C       2.4559979 *  2.8260029 *  0.0000000    1.4080301 *  2.4909859 *
   4 C       1.5129794 *  2.4754382 *  1.4080301 *  0.0000000    2.8939256 *
   5 C       2.4634675 *  1.5122646 *  2.4909859 *  2.8939256 *  0.0000000  
   6 O       3.5785329    2.4098403 *  3.5901985    4.1158791    1.2228364 *
   7 C       2.8342974 *  2.5627422 *  1.4055263 *  2.3851835 *  1.5400118 *
   8 C       3.5218598    3.3813088    2.6896599 *  3.0585767    2.6550089 *
   9 C       3.5227399    3.8804409    2.7428904 *  2.7023849 *  3.5972253  
  10 C       2.6588200 *  3.4115188    2.6869463 *  1.9288832 *  3.6908657  
  11 H       1.0846285 *  2.0957469 *  3.4045651    2.2243269 *  3.4651775  
  12 H       2.1036032 *  1.0820624 *  3.8942385    3.4773873    2.2209642 *
  13 H       3.4396918    3.9023772    1.0831268 *  2.1531302 *  3.4668821  
  14 H       2.1884728 *  3.3622637    2.1367835 *  1.0862572 *  3.9312388  
  15 H       3.8866190    3.4931567    2.1345035 *  3.3648897    2.1983228 *
  16 H       3.3367699    2.9351384 *  3.2405959    3.3556707    2.3583375 *
  17 H       4.5343436    4.2684470    3.3463071    3.9955002    3.2580965  
  18 H       4.3680076    4.8098751    3.0935032    3.2704984    4.4048128  
  19 H       2.3590071 *  3.0135512    3.2700490    2.3085800 *  3.5958778  
  20 H       3.3371327    4.3064889    3.3150711    2.4389472 *  4.6997234  

                6 O          7 C          8 C          9 C         10 C     

   1 C       3.5785329    2.8342974 *  3.5218598    3.5227399    2.6588200 *
   2 C       2.4098403 *  2.5627422 *  3.3813088    3.8804409    3.4115188  
   3 C       3.5901985    1.4055263 *  2.6896599 *  2.7428904 *  2.6869463 *
   4 C       4.1158791    2.3851835 *  3.0585767    2.7023849 *  1.9288832 *
   5 C       1.2228364 *  1.5400118 *  2.6550089 *  3.5972253    3.6908657  
   6 O       0.0000000    2.4282666 *  3.3345700    4.5152918    4.7898487  
   7 C       2.4282666 *  0.0000000    1.9290106 *  2.7012637 *  3.1011152  
   8 C       3.3345700    1.9290106 *  0.0000000    1.4049512 *  2.4199646 *
   9 C       4.5152918    2.7012637 *  1.4049512 *  0.0000000    1.4061524 *
  10 C       4.7898487    3.1011152    2.4199646 *  1.4061524 *  0.0000000  
  11 H       4.4955189    3.9145367    4.4473125    4.2589574    3.1409163  
  12 H       2.6700772 *  3.5415510    4.2462409    4.8125989    4.2986521  
  13 H       4.4654810    2.1518963 *  3.2507338    3.1017819    3.2085903  
  14 H       5.1474258    3.3651130    4.0047988    3.3748962    2.4027013 *
  15 H       2.6309071 *  1.0866438 *  2.4196606 *  3.3441699    4.0176189  
  16 H       2.8798921 *  2.3308719 *  1.0840723 *  2.1251528 *  2.7358107 *
  17 H       3.6518230    2.4160047 *  1.0850569 *  2.1341146 *  3.3874957  
  18 H       5.2976957    3.2303944    2.1280775 *  1.0839489 *  2.1298595 *
  19 H       4.6241757    3.4676907    2.7545392 *  2.1290832 *  1.0837420 *
  20 H       5.8347566    4.0072527    3.3827867    2.1306472 *  1.0854563 *

               11 H         12 H         13 H         14 H         15 H     

   1 C       1.0846285 *  2.1036032 *  3.4396918    2.1884728 *  3.8866190  
   2 C       2.0957469 *  1.0820624 *  3.9023772    3.3622637    3.4931567  
   3 C       3.4045651    3.8942385    1.0831268 *  2.1367835 *  2.1345035 *
   4 C       2.2243269 *  3.4773873    2.1531302 *  1.0862572 *  3.3648897  
   5 C       3.4651775    2.2209642 *  3.4668821    3.9312388    2.1983228 *
   6 O       4.4955189    2.6700772 *  4.4654810    5.1474258    2.6309071 *
   7 C       3.9145367    3.5415510    2.1518963 *  3.3651130    1.0866438 *
   8 C       4.4473125    4.2462409    3.2507338    4.0047988    2.4196606 *
   9 C       4.2589574    4.8125989    3.1017819    3.3748962    3.3441699  
  10 C       3.1409163    4.2986521    3.2085903    2.4027013 *  4.0176189  
  11 H       0.0000000    2.4571861 *  4.2908845    2.4663230 *  4.9678119  
  12 H       2.4571861 *  0.0000000    4.9636446    4.2665937    4.3790517  
  13 H       4.2908845    4.9636446    0.0000000    2.4686088 *  2.4607947 *
  14 H       2.4663230 *  4.2665937    2.4686088 *  0.0000000    4.2526478  
  15 H       4.9678119    4.3790517    2.4607947 *  4.2526478    0.0000000  
  16 H       4.1903295    3.5997977    4.0224203    4.3737410    2.9385780 *
  17 H       5.4990317    5.0915352    3.6875164    4.9077292    2.4194374 *
  18 H       5.0946269    5.7949351    3.0707183    3.7332183    3.6360499  
  19 H       2.6506155 *  3.7035533    4.0109752    2.8602523 *  4.4727289  
  20 H       3.5779226    5.1691620    3.5879189    2.4292836 *  4.8724859  

               16 H         17 H         18 H         19 H         20 H     

   1 C       3.3367699    4.5343436    4.3680076    2.3590071 *  3.3371327  
   2 C       2.9351384 *  4.2684470    4.8098751    3.0135512    4.3064889  
   3 C       3.2405959    3.3463071    3.0935032    3.2700490    3.3150711  
   4 C       3.3556707    3.9955002    3.2704984    2.3085800 *  2.4389472 *
   5 C       2.3583375 *  3.2580965    4.4048128    3.5958778    4.6997234  
   6 O       2.8798921 *  3.6518230    5.2976957    4.6241757    5.8347566  
   7 C       2.3308719 *  2.4160047 *  3.2303944    3.4676907    4.0072527  
   8 C       1.0840723 *  1.0850569 *  2.1280775 *  2.7545392 *  3.3827867  
   9 C       2.1251528 *  2.1341146 *  1.0839489 *  2.1290832 *  2.1306472 *
  10 C       2.7358107 *  3.3874957    2.1298595 *  1.0837420 *  1.0854563 *
  11 H       4.1903295    5.4990317    5.0946269    2.6506155 *  3.5779226  
  12 H       3.5997977    5.0915352    5.7949351    3.7035533    5.1691620  
  13 H       4.0224203    3.6875164    3.0707183    4.0109752    3.5879189  
  14 H       4.3737410    4.9077292    3.7332183    2.8602523 *  2.4292836 *
  15 H       2.9385780 *  2.4194374 *  3.6360499    4.4727289    4.8724859  
  16 H       0.0000000    1.7980858 *  3.0541347    2.6288908 *  3.7890574  
  17 H       1.7980858 *  0.0000000    2.4308437 *  3.8005822    4.2487547  
  18 H       3.0541347    2.4308437 *  0.0000000    3.0531799    2.4200170 *
  19 H       2.6288908 *  3.8005822    3.0531799    0.0000000    1.7983375 *
  20 H       3.7890574    4.2487547    2.4200170 *  1.7983375 *  0.0000000  

  * ... LESS THAN  3.000


     ATOMIC BASIS SET
     ----------------
 THE CONTRACTED PRIMITIVE FUNCTIONS HAVE BEEN UNNORMALIZED
 THE CONTRACTED BASIS FUNCTIONS ARE NOW NORMALIZED TO UNITY

  SHELL TYPE  PRIMITIVE        EXPONENT          CONTRACTION COEFFICIENT(S)

 C         

      1   S       1            71.6168373    0.154328967295
      1   S       2            13.0450963    0.535328142282
      1   S       3             3.5305122    0.444634542185

      2   L       4             2.9412494   -0.099967229187    0.155916274999
      2   L       5             0.6834831    0.399512826089    0.607683718598
      2   L       6             0.2222899    0.700115468880    0.391957393099

 C         

      3   S       7            71.6168373    0.154328967295
      3   S       8            13.0450963    0.535328142282
      3   S       9             3.5305122    0.444634542185

      4   L      10             2.9412494   -0.099967229187    0.155916274999
      4   L      11             0.6834831    0.399512826089    0.607683718598
      4   L      12             0.2222899    0.700115468880    0.391957393099

 C         

      5   S      13            71.6168373    0.154328967295
      5   S      14            13.0450963    0.535328142282
      5   S      15             3.5305122    0.444634542185

      6   L      16             2.9412494   -0.099967229187    0.155916274999
      6   L      17             0.6834831    0.399512826089    0.607683718598
      6   L      18             0.2222899    0.700115468880    0.391957393099

 C         

      7   S      19            71.6168373    0.154328967295
      7   S      20            13.0450963    0.535328142282
      7   S      21             3.5305122    0.444634542185

      8   L      22             2.9412494   -0.099967229187    0.155916274999
      8   L      23             0.6834831    0.399512826089    0.607683718598
      8   L      24             0.2222899    0.700115468880    0.391957393099

 C         

      9   S      25            71.6168373    0.154328967295
      9   S      26            13.0450963    0.535328142282
      9   S      27             3.5305122    0.444634542185

     10   L      28             2.9412494   -0.099967229187    0.155916274999
     10   L      29             0.6834831    0.399512826089    0.607683718598
     10   L      30             0.2222899    0.700115468880    0.391957393099

 O         

     11   S      31           130.7093214    0.154328967295
     11   S      32            23.8088661    0.535328142282
     11   S      33             6.4436083    0.444634542185

     12   L      34             5.0331513   -0.099967229187    0.155916274999
     12   L      35             1.1695961    0.399512826089    0.607683718598
     12   L      36             0.3803890    0.700115468880    0.391957393099

 C         

     13   S      37            71.6168373    0.154328967295
     13   S      38            13.0450963    0.535328142282
     13   S      39             3.5305122    0.444634542185

     14   L      40             2.9412494   -0.099967229187    0.155916274999
     14   L      41             0.6834831    0.399512826089    0.607683718598
     14   L      42             0.2222899    0.700115468880    0.391957393099

 C         

     15   S      43            71.6168373    0.154328967295
     15   S      44            13.0450963    0.535328142282
     15   S      45             3.5305122    0.444634542185

     16   L      46             2.9412494   -0.099967229187    0.155916274999
     16   L      47             0.6834831    0.399512826089    0.607683718598
     16   L      48             0.2222899    0.700115468880    0.391957393099

 C         

     17   S      49            71.6168373    0.154328967295
     17   S      50            13.0450963    0.535328142282
     17   S      51             3.5305122    0.444634542185

     18   L      52             2.9412494   -0.099967229187    0.155916274999
     18   L      53             0.6834831    0.399512826089    0.607683718598
     18   L      54             0.2222899    0.700115468880    0.391957393099

 C         

     19   S      55            71.6168373    0.154328967295
     19   S      56            13.0450963    0.535328142282
     19   S      57             3.5305122    0.444634542185

     20   L      58             2.9412494   -0.099967229187    0.155916274999
     20   L      59             0.6834831    0.399512826089    0.607683718598
     20   L      60             0.2222899    0.700115468880    0.391957393099

 H         

     21   S      61             3.4252509    0.154328967295
     21   S      62             0.6239137    0.535328142282
     21   S      63             0.1688554    0.444634542185

 H         

     22   S      64             3.4252509    0.154328967295
     22   S      65             0.6239137    0.535328142282
     22   S      66             0.1688554    0.444634542185

 H         

     23   S      67             3.4252509    0.154328967295
     23   S      68             0.6239137    0.535328142282
     23   S      69             0.1688554    0.444634542185

 H         

     24   S      70             3.4252509    0.154328967295
     24   S      71             0.6239137    0.535328142282
     24   S      72             0.1688554    0.444634542185

 H         

     25   S      73             3.4252509    0.154328967295
     25   S      74             0.6239137    0.535328142282
     25   S      75             0.1688554    0.444634542185

 H         

     26   S      76             3.4252509    0.154328967295
     26   S      77             0.6239137    0.535328142282
     26   S      78             0.1688554    0.444634542185

 H         

     27   S      79             3.4252509    0.154328967295
     27   S      80             0.6239137    0.535328142282
     27   S      81             0.1688554    0.444634542185

 H         

     28   S      82             3.4252509    0.154328967295
     28   S      83             0.6239137    0.535328142282
     28   S      84             0.1688554    0.444634542185

 H         

     29   S      85             3.4252509    0.154328967295
     29   S      86             0.6239137    0.535328142282
     29   S      87             0.1688554    0.444634542185

 H         

     30   S      88             3.4252509    0.154328967295
     30   S      89             0.6239137    0.535328142282
     30   S      90             0.1688554    0.444634542185

 TOTAL NUMBER OF BASIS SET SHELLS             =   30
 NUMBER OF CARTESIAN GAUSSIAN BASIS FUNCTIONS =   60
 NUMBER OF ELECTRONS                          =   72
 CHARGE OF MOLECULE                           =    0
 SPIN MULTIPLICITY                            =    1
 NUMBER OF OCCUPIED ORBITALS (ALPHA)          =   36
 NUMBER OF OCCUPIED ORBITALS (BETA )          =   36
 TOTAL NUMBER OF ATOMS                        =   20
 THE NUCLEAR REPULSION ENERGY IS      511.5087460187

     $CONTRL OPTIONS
     ---------------
 SCFTYP=RHF          RUNTYP=IRC          EXETYP=RUN     
 MPLEVL=       0     CITYP =NONE         CCTYP =NONE         VBTYP =NONE    
 DFTTYP=NONE         TDDFT =NONE    
 MULT  =       1     ICHARG=       0     NZVAR =       1     COORD =UNIQUE  
 PP    =NONE         RELWFN=NONE         LOCAL =NONE         NUMGRD=       F
 ISPHER=      -1     NOSYM =       0     MAXIT =      30     UNITS =ANGS    
 PLTORB=       F     MOLPLT=       F     AIMPAC=       F     FRIEND=        
 NPRINT=       7     IREST =       0     GEOM  =INPUT   
 NORMF =       0     NORMP =       0     ITOL  =      20     ICUT  =       9
 INTTYP=BEST         GRDTYP=BEST         QMTTOL= 1.0E-06

     $SYSTEM OPTIONS
     ---------------
  REPLICATED MEMORY=     1000000 WORDS (ON EVERY NODE).
 DISTRIBUTED MEMDDI=           0 MILLION WORDS IN AGGREGATE,
 MEMDDI DISTRIBUTED OVER   1 PROCESSORS IS           0 WORDS/PROCESSOR.
 TOTAL MEMORY REQUESTED ON EACH PROCESSOR=     1000000 WORDS.
 TIMLIM=      525600.00 MINUTES, OR     365.0 DAYS.
 PARALL= F  BALTYP=  DLB     KDIAG=    0  COREFL= F
 MXSEQ2=     300 MXSEQ3=     150  mem10=         0

          ----------------
          PROPERTIES INPUT
          ----------------

     MOMENTS            FIELD           POTENTIAL          DENSITY
 IEMOM =       1   IEFLD =       0   IEPOT =       0   IEDEN =       0
 WHERE =COMASS     WHERE =NUCLEI     WHERE =NUCLEI     WHERE =NUCLEI  
 OUTPUT=BOTH       OUTPUT=BOTH       OUTPUT=BOTH       OUTPUT=BOTH    
 IEMINT=       0   IEFINT=       0                     IEDINT=       0
                                                       MORB  =       0
          EXTRAPOLATION IN EFFECT
          SOSCF IN EFFECT
 ORBITAL PRINTING OPTION: NPREO=     1    60     2     1

     -------------------------------
     INTEGRAL TRANSFORMATION OPTIONS
     -------------------------------
     NWORD  =            0
     CUTOFF = 1.0E-09     MPTRAN =       0
     DIRTRF =       F     AOINTS =DUP     

          ----------------------
          INTEGRAL INPUT OPTIONS
          ----------------------
 NOPK  =       1 NORDER=       0 SCHWRZ=       T


 -----------------------------------------------
  STATISTICS ON AUTOMATIC COORDINATE GENERATION 
 -----------------------------------------------
  NUMBER OF USER SPECIFIED BONDS                             6
  NUMBER OF BONDS                                           25
  NUMBER OF ANGLES                                          61
  NUMBER OF TORSIONS                                        62
  NUMBER OF EXTRA COORD.                                     0
  NUMBER OF EXTRA COORD. FOR CONSTRAINTS                     0
  NUMBER OF CONSTRAINED COORD.                               0

  TOTAL NUMBER OF PRIMITIVES                               148
 -----------------------------------------------

   --- ENCODED Z MATRIX ---
 COORD  TYPE   I   J   K   L   M   N
    1      1    1   2
    2      1    1   4
    3      1    1  11
    4      1    2   5
    5      1    2  12
    6      1    3   4
    7      1    3   4
    8      1    3  13
    9      1    3   7
   10      1    3   7
   11      1    4  14
   12      1    4  10
   13      1    5   7
   14      1    5   6
   15      1    7  15
   16      1    7   8
   17      1    8  16
   18      1    8   9
   19      1    8   9
   20      1    8  17
   21      1    9  10
   22      1    9  10
   23      1    9  18
   24      1   10  20
   25      1   10  19
   26      2    1   4  10
   27      2    1   2  12
   28      2    1   4   3
   29      2    1   4  14
   30      2    1   2   5
   31      2    1   4   3
   32      2    2   1  11
   33      2    2   1   4
   34      2    2   5   6
   35      2    2   5   7
   36      2    3   7   8
   37      2    3   7  15
   38      2    3   7   5
   39      2    3   4  10
   40      2    3   7   5
   41      2    3   4  14
   42      2    3   4  10
   43      2    3   7   8
   44      2    3   7  15
   45      2    3   4  14
   46      2    4   3   7
   47      2    4   3  13
   48      2    4   3   7
   49      2    4   1  11
   50      2    4   3   7
   51      2    4   3   7
   52      2    4   3  13
   53      2    4  10  20
   54      2    4  10   9
   55      2    4  10   9
   56      2    4  10  19
   57      2    5   2  12
   58      2    5   7   8
   59      2    5   7  15
   60      2    6   5   7
   61      2    7   3  13
   62      2    7   3  13
   63      2    7   8  17
   64      2    7   8   9
   65      2    7   8   9
   66      2    7   8  16
   67      2    8   9  18
   68      2    8   9  10
   69      2    8   9  10
   70      2    8   9  18
   71      2    8   9  10
   72      2    8   9  10
   73      2    8   7  15
   74      2    9  10  19
   75      2    9  10  20
   76      2    9  10  19
   77      2    9  10  20
   78      2    9   8  17
   79      2    9   8  17
   80      2    9   8  16
   81      2    9   8  16
   82      2   10   4  14
   83      2   10   9  18
   84      2   10   9  18
   85      2   16   8  17
   86      2   19  10  20
   87      3    1   4  10   9
   88      3    1   4   3   7
   89      3    1   4  10  19
   90      3    1   4  10  20
   91      3    1   4   3  13
   92      3    1   2   5   6
   93      3    1   2   5   7
   94      3    2   1   4  10
   95      3    2   1   4  14
   96      3    2   5   7   8
   97      3    2   5   7  15
   98      3    2   5   7   3
   99      3    2   1   4   3
  100      3    3   4  10  19
  101      3    3   4  10  20
  102      3    3   4  10   9
  103      3    3   7   5   6
  104      3    3   7   8  17
  105      3    3   7   8   9
  106      3    3   7   8  16
  107      3    3   4   1  11
  108      3    4   1   2  12
  109      3    4   3   7   5
  110      3    4   3   7  15
  111      3    4   3   7   8
  112      3    4  10   9  18
  113      3    4  10   9   8
  114      3    4   1   2   5
  115      3    5   7   3  13
  116      3    5   7   8  17
  117      3    5   7   8   9
  118      3    5   7   8  16
  119      3    5   2   1  11
  120      3    6   5   7  15
  121      3    6   5   7   8
  122      3    6   5   2  12
  123      3    7   3   4  10
  124      3    7   8   9  18
  125      3    7   8   9  10
  126      3    7   5   2  12
  127      3    7   3   4  14
  128      3    8   9  10  19
  129      3    8   9  10  20
  130      3    8   7   3  13
  131      3    9   8   7  15
  132      3    9  10   4  14
  133      3   10   4   3  13
  134      3   10   9   8  17
  135      3   10   9   8  16
  136      3   10   4   1  11
  137      3   11   1   4  14
  138      3   11   1   2  12
  139      3   13   3   7  15
  140      3   13   3   4  14
  141      3   14   4  10  19
  142      3   14   4  10  20
  143      3   15   7   8  16
  144      3   15   7   8  17
  145      3   16   8   9  18
  146      3   17   8   9  18
  147      3   18   9  10  20
  148      3   18   9  10  19

          INDEP./SYM. INTERNAL COORDINATES
          --------------------------------
 CRD  1=  -0.1353 (  2) -0.1260 ( 12) -0.1195 ( 13) -0.1300 ( 16) -0.4105 ( 26)
           0.1200 ( 36)  0.1342 ( 39)  0.1342 ( 42)  0.1200 ( 43) -0.1078 ( 56)
          -0.4021 ( 58) -0.1159 ( 66)  0.1210 ( 73)  0.1165 ( 82) -0.1656 ( 88)
          -0.1710 ( 91)  0.1032 (108)  0.1577 (109) -0.2079 (111)  0.1635 (115)
           0.2044 (123) -0.2021 (130)  0.1991 (133)
 CRD  2=  -0.2116 (  1) -0.3389 (  2)  0.1281 (  4)  0.3534 ( 13) -0.1994 ( 27)
           0.1378 ( 33) -0.1465 ( 34) -0.1232 ( 35) -0.1874 ( 49)  0.1897 ( 57)
           0.1016 ( 59)  0.2698 ( 60) -0.1865 ( 87) -0.1260 ( 89) -0.1362 ( 90)
          -0.1014 (101) -0.1517 (102) -0.1555 (105) -0.1475 (116) -0.2079 (117)
          -0.1373 (118)
 CRD  3=   0.1202 (  3)  0.2380 (  4) -0.1095 ( 12) -0.1262 ( 13) -0.1095 ( 14)
           0.1046 ( 20) -0.1115 ( 24) -0.1074 ( 27)  0.1328 ( 28) -0.1136 ( 29)
           0.1328 ( 31)  0.1435 ( 34)  0.1018 ( 35)  0.1805 ( 36) -0.1063 ( 38)
          -0.1875 ( 39) -0.1063 ( 40) -0.1875 ( 42)  0.1805 ( 43) -0.1864 ( 53)
           0.1698 ( 54)  0.1698 ( 55)  0.1483 ( 57)  0.1007 ( 59) -0.2453 ( 60)
           0.1388 ( 63) -0.2221 ( 64) -0.2221 ( 65)  0.1067 ( 66) -0.1577 ( 73)
           0.1422 ( 82) -0.1420 ( 94) -0.1632 ( 96)  0.1020 (112) -0.1531 (121)
          -0.1434 (136)
 CRD  4=   0.4577 ( 12) -0.3986 ( 16)  0.2015 ( 53) -0.1092 ( 54) -0.1092 ( 55)
          -0.1804 ( 63)  0.1302 ( 64)  0.1302 ( 65) -0.1084 ( 66) -0.1225 ( 73)
           0.1285 ( 82)  0.1050 ( 93) -0.1880 ( 94) -0.2024 ( 96) -0.1610 ( 98)
          -0.1495 ( 99) -0.1246 (103) -0.1228 (107) -0.1659 (121) -0.1613 (136)
 CRD  5=  -0.1524 (  1)  0.3014 (  2) -0.2058 (  4)  0.1676 ( 12)  0.2125 ( 13)
           0.2114 ( 16) -0.2387 ( 32) -0.3596 ( 34)  0.2712 ( 49)  0.1573 ( 54)
           0.1573 ( 55) -0.1649 ( 56)  0.2606 ( 60)  0.1596 ( 63) -0.1038 ( 66)
          -0.1230 (112)  0.1642 (124)  0.1228 (125)
 CRD  6=   0.2056 (  1)  0.3162 (  4)  0.1882 (  5)  0.3252 ( 12)  0.4076 ( 16)
          -0.1523 ( 30)  0.2448 ( 34) -0.1485 ( 49)  0.1365 ( 53) -0.1010 ( 56)
           0.1734 ( 57) -0.2652 ( 60)  0.1408 ( 63) -0.1446 (112) -0.1196 (113)
           0.1480 (124)  0.1303 (125)
 CRD  7=   0.2273 (  1)  0.3780 (  2)  0.2520 (  4)  0.2822 (  5) -0.3231 ( 12)
           0.3658 ( 13)  0.1070 ( 14) -0.2966 ( 16) -0.1629 ( 30) -0.1215 ( 56)
           0.1178 ( 57) -0.1206 ( 66) -0.1044 ( 91) -0.1079 (133)
 CRD  8=   0.4202 (  1)  0.1035 (  3) -0.1241 (  4)  0.4079 ( 27)  0.4009 ( 32)
          -0.1957 ( 34) -0.3349 ( 49) -0.3923 ( 57)  0.1730 ( 60)
 CRD  9=   0.1703 (  3)  0.1524 (  4) -0.1923 (  5)  0.1092 ( 11)  0.2170 ( 14)
           0.1027 ( 15)  0.1774 ( 18)  0.1774 ( 19)  0.1546 ( 20)  0.1747 ( 21)
           0.1747 ( 22)  0.1699 ( 24) -0.1996 ( 27)  0.2809 ( 30) -0.1694 ( 33)
          -0.1937 ( 35)  0.1191 ( 46)  0.1191 ( 48)  0.2157 ( 49)  0.1191 ( 50)
           0.1191 ( 51)  0.1489 ( 60)  0.1565 ( 68)  0.1565 ( 69)  0.1565 ( 71)
           0.1565 ( 72)  0.1111 ( 89)
 CRD 10=   0.2048 (  2)  0.2481 (  3)  0.1475 (  6)  0.1475 (  7) -0.1466 (  9)
          -0.1466 ( 10) -0.2646 ( 13) -0.2551 ( 14) -0.1128 ( 17)  0.1187 ( 25)
           0.1057 ( 27) -0.1876 ( 33)  0.1595 ( 35)  0.1694 ( 47)  0.1736 ( 49)
           0.1694 ( 52) -0.1333 ( 57) -0.1321 ( 60) -0.1812 ( 61) -0.1812 ( 62)
           0.1153 ( 74)  0.1153 ( 76) -0.1733 ( 87) -0.1438 (102) -0.1458 (105)
          -0.1841 (117) -0.1358 (131) -0.1316 (132)
 CRD 11=   0.1707 (  2)  0.1882 (  5)  0.2982 (  8)  0.1721 ( 12)  0.1358 ( 13)
           0.1025 ( 15)  0.1828 ( 16)  0.1312 ( 17)  0.1399 ( 25) -0.1076 ( 26)
          -0.1395 ( 30) -0.1211 ( 54) -0.1211 ( 55)  0.3045 ( 56) -0.1030 ( 58)
          -0.1214 ( 64) -0.1214 ( 65)  0.3080 ( 66)  0.1958 (112)  0.1849 (113)
          -0.1915 (124) -0.1786 (125)
 CRD 12=  -0.1126 (  1) -0.2710 (  3) -0.1148 (  4)  0.1405 (  5) -0.1432 (  6)
          -0.1432 (  7) -0.1424 (  8) -0.1551 (  9) -0.1551 ( 10) -0.1713 ( 11)
          -0.2803 ( 14)  0.2051 ( 18)  0.2051 ( 19)  0.1880 ( 20)  0.1965 ( 21)
           0.1965 ( 22)  0.2336 ( 24) -0.1936 ( 30)  0.1322 ( 33)  0.1377 ( 35)
           0.1059 ( 57) -0.1056 (118)
 CRD 13=   0.1973 (  3)  0.1215 (  4) -0.3003 ( 11)  0.1063 ( 12) -0.1028 ( 14)
           0.3214 ( 15) -0.1606 ( 20)  0.1496 ( 28) -0.1367 ( 29)  0.1496 ( 31)
           0.1694 ( 32) -0.1282 ( 33) -0.1432 ( 34) -0.1377 ( 38) -0.1377 ( 40)
           0.1288 ( 59)  0.1120 ( 94)  0.1519 ( 96)  0.1021 ( 97)  0.1123 (102)
           0.1277 (105)  0.1132 (121) -0.1435 (128)  0.1048 (131) -0.1355 (135)
          -0.1114 (145) -0.1222 (148)
 CRD 14=   0.2056 (  6)  0.2056 (  7)  0.2077 (  8)  0.1889 (  9)  0.1889 ( 10)
           0.1117 ( 11)  0.1990 ( 15)  0.1925 ( 18)  0.1925 ( 19)  0.1292 ( 20)
           0.2031 ( 21)  0.2031 ( 22)  0.3169 ( 23)  0.1516 ( 24) -0.1116 ( 29)
           0.1216 ( 37)  0.1170 ( 41)  0.1216 ( 44)  0.1170 ( 45) -0.1250 ( 53)
          -0.1052 ( 63)  0.1498 ( 75)  0.1498 ( 77)  0.1252 ( 78)  0.1252 ( 79)
          -0.1315 ( 90) -0.1214 (101)  0.1377 (104)  0.1072 (116)  0.1131 (132)
 CRD 15=  -0.2929 ( 17) -0.2202 ( 18) -0.2202 ( 19)  0.2036 ( 21)  0.2036 ( 22)
           0.2840 ( 25) -0.1425 ( 53)  0.1007 ( 56)  0.1523 ( 63) -0.1044 ( 66)
          -0.2827 ( 67) -0.2827 ( 70)  0.1234 ( 75)  0.1234 ( 77) -0.1325 ( 78)
          -0.1325 ( 79)  0.2718 ( 83)  0.2718 ( 84) -0.1344 (129) -0.1355 (134)
 CRD 16=   0.1128 (  9)  0.1128 ( 10) -0.1761 ( 12) -0.2018 ( 14)  0.3861 ( 15)
          -0.2866 ( 23) -0.1169 ( 25) -0.1486 ( 82)  0.1331 ( 88)  0.1297 ( 91)
           0.1680 ( 92)  0.2024 ( 93) -0.1347 ( 95) -0.1306 ( 97) -0.1935 ( 98)
          -0.1186 ( 99) -0.1593 (103) -0.1039 (111)  0.1355 (122)  0.1699 (126)
           0.1454 (127) -0.1146 (137)  0.1421 (140)
 CRD 17=   0.1644 (  3) -0.1508 (  6) -0.1508 (  7) -0.4552 ( 11)  0.1141 ( 21)
           0.1141 ( 22)  0.1538 ( 23)  0.1674 ( 25) -0.1191 ( 41) -0.1191 ( 45)
          -0.1497 ( 47) -0.1497 ( 52) -0.1266 ( 56)  0.1679 ( 61)  0.1679 ( 62)
          -0.1320 ( 63)  0.1647 ( 66)  0.1352 ( 74)  0.1352 ( 76) -0.1199 ( 80)
          -0.1199 ( 81) -0.1095 ( 99)  0.1126 (100) -0.1090 (107)  0.1025 (128)
           0.1030 (134)  0.1587 (135)  0.1581 (145)  0.1024 (146)  0.1308 (148)
 CRD 18=  -0.1664 (  3) -0.1329 (  8)  0.1073 (  9)  0.1073 ( 10)  0.2858 ( 11)
          -0.1059 ( 14)  0.2275 ( 15) -0.1305 ( 16) -0.1915 ( 17) -0.1400 ( 18)
          -0.1400 ( 19) -0.1556 ( 23)  0.1031 ( 37)  0.1031 ( 44)  0.1745 ( 53)
          -0.1616 ( 56)  0.1302 ( 66) -0.1243 ( 80) -0.1243 ( 81)  0.1082 ( 95)
           0.1060 ( 96)  0.1670 ( 97)  0.1066 ( 98)  0.1291 ( 99)  0.1097 (107)
           0.1289 (120)  0.1689 (128)  0.1647 (129)  0.1047 (135)  0.1426 (145)
           0.1661 (147)  0.1703 (148)
 CRD 19=  -0.4438 (  8)  0.2837 ( 11)  0.3764 ( 15)  0.1102 ( 17) -0.1259 ( 20)
           0.3391 ( 23) -0.2074 ( 24)  0.1051 ( 25)  0.1052 ( 46)  0.1052 ( 48)
           0.1052 ( 50)  0.1052 ( 51) -0.1030 ( 94)  0.1155 (108)  0.1009 (109)
           0.1319 (114)  0.1209 (115)  0.1119 (119)
 CRD 20=   0.1251 (  6)  0.1251 (  7) -0.1482 (  9) -0.1482 ( 10)  0.3169 ( 17)
          -0.2757 ( 20)  0.1302 ( 23)  0.1549 ( 24) -0.1265 ( 25) -0.1318 ( 37)
          -0.1318 ( 44)  0.1706 ( 47)  0.1706 ( 52) -0.1693 ( 56)  0.1087 ( 59)
          -0.1797 ( 61) -0.1797 ( 62)  0.1780 ( 66) -0.1117 ( 97)  0.1618 (128)
           0.1668 (131)  0.1224 (134)  0.1858 (135)  0.1936 (145)  0.1303 (146)
           0.1862 (148)
 CRD 21=  -0.1907 ( 17) -0.2786 ( 23)  0.2117 ( 24) -0.3655 ( 25)  0.1135 ( 73)
          -0.1092 ( 88) -0.1236 ( 92) -0.1199 ( 93) -0.1340 ( 94)  0.1780 (108)
           0.1658 (109)  0.2055 (110)  0.1278 (111)  0.1978 (114)  0.1063 (115)
           0.1735 (119) -0.1048 (122) -0.1460 (123) -0.1011 (126) -0.1669 (127)
           0.1008 (132) -0.1155 (133) -0.1107 (136)  0.1537 (138)  0.1461 (139)
          -0.1365 (140)
 CRD 22=  -0.1963 (  8) -0.1854 ( 17) -0.3446 ( 23) -0.1789 ( 25) -0.2614 ( 53)
          -0.2602 ( 63)  0.1326 ( 75)  0.1326 ( 77)  0.1365 ( 78)  0.1365 ( 79)
          -0.1925 (128) -0.3041 (129)  0.3028 (134)  0.1793 (135)  0.2142 (146)
          -0.2166 (147) -0.1050 (148)
 CRD 23=  -0.3072 ( 17) -0.5523 ( 20)  0.4751 ( 24)  0.2517 ( 25) -0.1004 ( 74)
          -0.1004 ( 76)  0.1176 ( 80)  0.1176 ( 81) -0.1795 ( 85)  0.1526 ( 86)
          -0.1102 ( 89) -0.1152 (100) -0.1377 (106) -0.1325 (118) -0.1227 (141)
          -0.1453 (143)
 CRD 24=   0.2341 (  8) -0.2784 ( 17) -0.4150 ( 20)  0.1231 ( 23) -0.4903 ( 24)
          -0.3425 ( 25)  0.1256 ( 74)  0.1256 ( 76)  0.1082 ( 80)  0.1082 ( 81)
          -0.1433 ( 85) -0.1734 ( 86)  0.1529 ( 89)  0.1523 (100) -0.1341 (106)
          -0.1348 (118)  0.1633 (141) -0.1430 (143)
 CRD 25=   0.1567 (  3) -0.1015 (  6) -0.1015 (  7)  0.1138 (  9)  0.1138 ( 10)
          -0.1729 ( 14)  0.3823 ( 17) -0.1338 ( 20)  0.1255 ( 24) -0.3182 ( 25)
           0.1342 ( 75)  0.1342 ( 77) -0.1502 ( 78) -0.1502 ( 79) -0.1550 ( 90)
          -0.1092 (100) -0.1682 (101) -0.1963 (104) -0.1187 (106) -0.1831 (116)
          -0.1055 (118) -0.1420 (141) -0.2011 (142) -0.1527 (143) -0.2303 (144)
 CRD 26=  -0.1485 (  3)  0.3491 (  8) -0.1054 ( 14)  0.2727 ( 17) -0.1581 ( 23)
           0.3146 ( 25)  0.1145 ( 85)  0.1267 ( 86)  0.1634 ( 90)  0.1631 (101)
          -0.1343 (104) -0.1061 (113) -0.1343 (116) -0.2226 (129)  0.2165 (134)
           0.1043 (141)  0.1887 (142) -0.1511 (144)  0.1581 (146) -0.1669 (147)
 CRD 27=   0.1430 ( 11)  0.1674 ( 73)  0.1779 ( 82) -0.1334 ( 88)  0.1436 ( 93)
           0.1060 ( 94)  0.2704 ( 95) -0.2191 ( 97) -0.1177 ( 98)  0.1583 ( 99)
           0.1037 (107) -0.3024 (108)  0.1231 (109)  0.2181 (110) -0.1667 (114)
          -0.1096 (119) -0.1605 (120)  0.2136 (122)  0.2725 (126) -0.2327 (127)
           0.2157 (137) -0.2453 (138)  0.1871 (139) -0.1955 (140)
 CRD 28=   0.1234 (  1)  0.4030 (  3)  0.3338 (  5)  0.1376 ( 11) -0.1964 ( 13)
          -0.2546 ( 14) -0.3331 ( 15) -0.3048 ( 27) -0.2671 ( 34)  0.2939 ( 57)
           0.2737 ( 60)
 CRD 29=  -0.2064 (  2) -0.1277 (  3)  0.1195 (  4)  0.5764 (  5) -0.2546 ( 11)
          -0.1751 ( 13)  0.3336 ( 14)  0.1533 ( 27) -0.2485 ( 32)  0.2734 ( 49)
          -0.1817 ( 57)  0.1100 ( 82)
 CRD 30=  -0.1168 (  5)  0.1395 (  8)  0.1685 ( 11) -0.1678 ( 12)  0.1175 ( 15)
          -0.1675 ( 16)  0.1139 ( 73)  0.2039 ( 91) -0.2589 ( 92) -0.1184 ( 97)
           0.2557 (103) -0.2683 (107) -0.1976 (108) -0.1885 (115)  0.2650 (119)
           0.1018 (120)  0.2270 (121)  0.2012 (126) -0.1876 (130)  0.1828 (133)
          -0.2271 (136) -0.1213 (137) -0.1060 (145)  0.1053 (148)
 CRD 31=   0.3175 (  1) -0.2379 (  2)  0.2980 (  3) -0.3633 (  4) -0.2251 ( 11)
           0.2464 ( 13) -0.3073 ( 14)  0.2538 ( 15) -0.2230 ( 32)  0.2339 ( 34)
          -0.1221 ( 35)  0.1232 ( 49) -0.1118 ( 60)
 CRD 32=  -0.1665 (  2) -0.1879 (  3)  0.1049 (  4)  0.1961 (  5)  0.3685 (  8)
          -0.1811 ( 13) -0.1698 ( 14) -0.2522 ( 17)  0.1899 ( 20)  0.4042 ( 23)
           0.1976 ( 24) -0.2539 ( 25)  0.1046 ( 30)  0.1008 ( 60)  0.1067 (127)
           0.1058 (131) -0.1102 (132) -0.1288 (141)  0.1275 (143)
 CRD 33=   0.1439 (  1)  0.2122 (  2) -0.1794 (  3) -0.1010 (  5) -0.3040 ( 11)
          -0.2180 ( 13)  0.1418 ( 14)  0.2536 ( 15) -0.2312 ( 27)  0.1197 ( 29)
           0.1896 ( 32) -0.2264 ( 34)  0.1648 ( 47) -0.1518 ( 49)  0.1648 ( 52)
           0.2561 ( 57) -0.1455 ( 59)  0.1773 ( 60) -0.1667 ( 61) -0.1667 ( 62)
          -0.1289 (141) -0.1379 (143)
 CRD 34=  -0.2722 (  1)  0.3843 (  3) -0.2835 (  4)  0.2126 (  5) -0.1456 (  6)
          -0.1456 (  7)  0.1590 (  8) -0.1385 (  9) -0.1385 ( 10)  0.2137 ( 11)
          -0.1664 ( 13)  0.4359 ( 14)  0.2513 ( 15) -0.1090 ( 49)
 CRD 35=   0.1450 (  3) -0.1552 (  8) -0.1756 ( 12)  0.1543 ( 14) -0.1709 ( 16)
           0.2688 ( 23)  0.1805 ( 56)  0.1777 ( 66)  0.1128 ( 90) -0.1105 (108)
          -0.1575 (112) -0.1270 (116)  0.1519 (124)  0.1041 (126) -0.1900 (128)
           0.1813 (135)  0.1452 (142) -0.1467 (144)  0.3148 (145)  0.1125 (146)
          -0.1200 (147) -0.3301 (148)
 CRD 36=   0.1212 (  1) -0.1828 (  5) -0.2476 (  8)  0.1072 ( 16) -0.1638 ( 17)
          -0.1018 ( 18) -0.1018 ( 19)  0.2620 ( 23)  0.1183 ( 24) -0.1837 ( 25)
          -0.1023 ( 29) -0.1004 ( 30) -0.1474 ( 53) -0.1248 ( 63)  0.1069 ( 85)
           0.2093 (112) -0.2177 (124) -0.1546 (129)  0.1070 (133)  0.1424 (134)
           0.1486 (141)  0.1725 (142) -0.1038 (143) -0.1746 (144) -0.2578 (145)
           0.2230 (148)
 CRD 37=   0.1502 (  1) -0.1461 (  4) -0.1408 ( 18) -0.1408 ( 19) -0.2504 ( 20)
           0.1641 ( 21)  0.1641 ( 22)  0.2232 ( 24) -0.1091 ( 27)  0.1228 ( 63)
           0.2291 ( 67)  0.2291 ( 70)  0.1430 ( 74)  0.1430 ( 76) -0.1453 ( 80)
          -0.1453 ( 81) -0.2156 ( 83) -0.2156 ( 84)  0.1579 ( 85) -0.1788 ( 86)
           0.1589 ( 89)  0.1474 (100)  0.1654 (106)  0.1733 (118)  0.1221 (141)
           0.1612 (143) -0.1238 (145) -0.1282 (146) -0.1214 (147) -0.1506 (148)
 CRD 38=   0.3317 (  1) -0.1672 (  2) -0.2707 (  5)  0.1237 (  8) -0.1270 (  9)
          -0.1270 ( 10) -0.1824 ( 13)  0.1601 ( 14) -0.2192 ( 30) -0.1956 ( 32)
          -0.1767 ( 34)  0.1419 ( 35)  0.1437 ( 49)  0.1747 ( 57)  0.1416 ( 92)
           0.1335 ( 95)  0.1243 ( 97) -0.1411 (103) -0.1023 (107) -0.1467 (110)
           0.1065 (119)  0.1216 (122) -0.1209 (127) -0.1001 (129) -0.1389 (134)
           0.1019 (135)  0.1287 (138) -0.1315 (139) -0.1158 (140)  0.1305 (145)
          -0.1103 (146) -0.1223 (147)
 CRD 39=  -0.1668 (  1)  0.2107 (  2) -0.1121 (  3) -0.2055 (  4)  0.2725 (  5)
          -0.1262 (  8)  0.1188 ( 13) -0.1684 ( 27)  0.2300 ( 30)  0.2394 ( 32)
          -0.1286 ( 33)  0.1480 ( 34) -0.1110 ( 49) -0.1111 ( 53) -0.1017 ( 73)
           0.1033 ( 95)  0.1777 ( 97) -0.1535 (107) -0.1289 (110)  0.1743 (119)
           0.1892 (122) -0.1270 (127)  0.1001 (128) -0.1517 (129) -0.1038 (134)
          -0.1225 (136) -0.1230 (139) -0.1417 (140) -0.1393 (146) -0.1207 (147)
           0.1312 (148)
 CRD 40=  -0.3366 (  1)  0.2333 (  3)  0.4239 (  4) -0.1433 (  6) -0.1433 (  7)
          -0.2071 ( 14) -0.1074 ( 16)  0.2394 ( 27)  0.1852 ( 33) -0.1357 ( 35)
           0.1091 ( 47) -0.1234 ( 49)  0.1091 ( 52) -0.1759 ( 57)  0.1599 ( 60)
           0.1048 ( 89) -0.1229 (115)  0.1101 (117)  0.1183 (118) -0.1095 (139)
 CRD 41=   0.1065 (  2) -0.1016 (  3) -0.1233 (  4) -0.2010 ( 12)  0.1243 ( 13)
          -0.1969 ( 16)  0.1060 ( 30)  0.1015 ( 32)  0.1048 ( 73)  0.1039 ( 82)
           0.2714 ( 91)  0.1247 ( 92)  0.1564 ( 95) -0.1449 ( 97) -0.1064 (103)
           0.2747 (108)  0.1185 (110) -0.2418 (115) -0.1180 (119) -0.2434 (120)
          -0.1098 (121) -0.1514 (122) -0.2508 (126) -0.1185 (127) -0.1957 (130)
           0.1937 (133)  0.1159 (136)  0.2524 (137)  0.1747 (138)
 CRD 42=  -0.1303 (  2) -0.2502 ( 12)  0.1220 ( 13)  0.2265 ( 16)  0.1163 ( 17)
          -0.1093 ( 18) -0.1093 ( 19)  0.1090 ( 24) -0.1048 ( 25)  0.1440 ( 37)
          -0.1344 ( 41)  0.1440 ( 44) -0.1344 ( 45)  0.1019 ( 56) -0.1026 ( 59)
          -0.1515 ( 75) -0.1515 ( 77)  0.1535 ( 78)  0.1535 ( 79)  0.1663 ( 92)
           0.1287 ( 95)  0.1491 ( 97)  0.1044 (101) -0.1578 (103)  0.1104 (104)
          -0.1378 (107)  0.1063 (116)  0.1778 (119) -0.1456 (121)  0.2037 (122)
          -0.1260 (128) -0.1240 (131) -0.1114 (132) -0.1104 (135) -0.1112 (136)
           0.1373 (138) -0.1172 (148)
 CRD 43=   0.2058 (  2) -0.1829 ( 12) -0.1735 ( 13)  0.1646 ( 16) -0.1939 ( 17)
           0.2128 ( 25) -0.1363 ( 29)  0.1057 ( 41)  0.1057 ( 45)  0.1243 ( 85)
          -0.1763 ( 86) -0.1519 ( 90) -0.1618 (101) -0.1514 (104) -0.1192 (110)
           0.1022 (119)  0.1144 (122) -0.1378 (127)  0.2217 (129)  0.1324 (131)
           0.1638 (132)  0.2119 (134) -0.1108 (139) -0.1093 (140)  0.1327 (141)
           0.1929 (146)  0.1907 (147)
 CRD 44=   0.1144 (  3)  0.1465 (  6)  0.1465 (  7)  0.1710 (  9)  0.1710 ( 10)
          -0.1821 ( 11)  0.1076 ( 14) -0.1667 ( 15)  0.1482 ( 18)  0.1482 ( 19)
          -0.1623 ( 20)  0.1537 ( 21)  0.1537 ( 22) -0.1584 ( 24) -0.1259 ( 28)
           0.1377 ( 29) -0.1259 ( 31)  0.1307 ( 33)  0.1182 ( 35) -0.1009 ( 38)
          -0.1009 ( 40) -0.1227 ( 49)  0.1716 ( 59) -0.1064 ( 60) -0.1232 ( 74)
          -0.1232 ( 76)  0.2018 ( 85)  0.1546 ( 86)  0.1292 ( 87)  0.1580 ( 90)
          -0.1475 (100)  0.1374 (106) -0.1778 (116) -0.1083 (117) -0.1701 (141)
           0.2097 (143) -0.1132 (145)
 CRD 45=  -0.1790 (  2) -0.1291 (  9) -0.1291 ( 10)  0.1032 ( 11)  0.1978 ( 13)
          -0.1941 ( 17)  0.1630 ( 18)  0.1630 ( 19) -0.1369 ( 24)  0.1338 ( 25)
           0.1081 ( 36)  0.1223 ( 37)  0.1081 ( 43)  0.1223 ( 44) -0.1578 ( 59)
           0.1113 ( 66) -0.1539 ( 78) -0.1539 ( 79) -0.1130 ( 82)  0.1694 ( 85)
           0.1596 (102)  0.1174 (105)  0.1176 (106)  0.1375 (110) -0.1112 (116)
           0.1052 (117)  0.1053 (118)  0.1312 (127)  0.1369 (140) -0.1386 (141)
          -0.1459 (142) -0.3013 (144)
 CRD 46=  -0.1153 (  2)  0.1530 (  6)  0.1530 (  7)  0.1100 (  9)  0.1100 ( 10)
          -0.1522 ( 15) -0.1289 ( 18) -0.1289 ( 19)  0.1593 ( 20) -0.2149 ( 21)
          -0.2149 ( 22)  0.1484 ( 25)  0.1508 ( 29) -0.1045 ( 38) -0.1080 ( 39)
          -0.1045 ( 40) -0.1022 ( 41) -0.1080 ( 42) -0.1022 ( 45)  0.1007 ( 54)
           0.1007 ( 55) -0.1094 ( 63)  0.1165 ( 73)  0.1311 ( 75)  0.1311 ( 77)
           0.1221 ( 80)  0.1221 ( 81) -0.2015 ( 86)  0.1073 ( 87)  0.1901 ( 89)
           0.1179 (100) -0.1376 (101)  0.1195 (105) -0.1775 (118) -0.1109 (136)
          -0.2686 (142)
 CRD 47=  -0.2082 (  6) -0.2082 (  7)  0.2106 (  9)  0.2106 ( 10)  0.1323 ( 11)
          -0.1077 ( 15)  0.2417 ( 18)  0.2417 ( 19) -0.1100 ( 20) -0.2161 ( 21)
          -0.2161 ( 22)  0.1570 ( 47)  0.1570 ( 52) -0.1505 ( 61) -0.1505 ( 62)
          -0.1339 ( 67) -0.1339 ( 70)  0.1339 ( 83)  0.1339 ( 84)  0.1078 ( 85)
          -0.1429 ( 98) -0.1115 ( 99)  0.1260 (100)  0.1229 (106)  0.1083 (120)
          -0.1075 (122) -0.1151 (140)
 CRD 48=  -0.1710 (  6) -0.1710 (  7)  0.1417 (  9)  0.1417 ( 10)  0.1957 ( 12)
          -0.1852 ( 16)  0.1241 ( 58)  0.1257 ( 92) -0.2130 ( 93) -0.1015 ( 95)
           0.1581 ( 96)  0.2044 ( 98)  0.1346 ( 99) -0.1320 (103) -0.1468 (108)
           0.1370 (110) -0.1339 (115)  0.1571 (119) -0.3463 (120) -0.1782 (121)
           0.2751 (122)  0.1162 (127) -0.2417 (137)  0.1593 (140)
 CRD 49=   0.1075 (  2) -0.1365 (  6) -0.1365 (  7)  0.1623 (  8)  0.1130 ( 13)
           0.1019 ( 17) -0.1423 ( 18) -0.1423 ( 19)  0.1808 ( 23) -0.1103 ( 24)
           0.1043 ( 25)  0.1372 ( 37)  0.1098 ( 41)  0.1372 ( 44)  0.1098 ( 45)
           0.1347 ( 46)  0.1347 ( 48)  0.1347 ( 50)  0.1347 ( 51) -0.1041 ( 61)
          -0.1041 ( 62)  0.1938 ( 68)  0.1938 ( 69)  0.1938 ( 71)  0.1938 ( 72)
           0.1527 ( 75)  0.1527 ( 77)  0.1489 ( 78)  0.1489 ( 79) -0.1083 (100)
          -0.1172 (101)  0.1422 (104)  0.1109 (106) -0.1012 (111) -0.1495 (131)
           0.1611 (132)
 CRD 50=   0.1817 (  6)  0.1817 (  7) -0.2286 (  9) -0.2286 ( 10) -0.1287 ( 11)
           0.2099 ( 18)  0.2099 ( 19) -0.1214 ( 20) -0.2308 ( 21) -0.2308 ( 22)
           0.1225 ( 24) -0.1324 ( 47) -0.1324 ( 52)  0.1158 ( 61)  0.1158 ( 62)
          -0.1321 ( 67) -0.1321 ( 70) -0.1082 ( 80) -0.1082 ( 81)  0.1194 ( 83)
           0.1194 ( 84) -0.1068 ( 86)  0.1487 ( 89) -0.1178 ( 94) -0.1224 (101)
          -0.1283 (102) -0.1089 (105)  0.1357 (118) -0.1036 (131)  0.1244 (133)
 CRD 51=   0.1111 ( 36)  0.1111 ( 43) -0.1601 ( 91)  0.1135 ( 92)  0.1783 ( 93)
           0.1689 ( 94)  0.1588 ( 95) -0.1185 ( 97)  0.1352 ( 99)  0.1274 (103)
          -0.1696 (107) -0.1578 (109) -0.2740 (114) -0.1927 (122)  0.1123 (124)
          -0.1279 (126)  0.1978 (130) -0.1380 (133) -0.1065 (135) -0.1358 (136)
          -0.1459 (137)  0.3673 (138)  0.2531 (139) -0.1573 (140)  0.1029 (146)
          -0.1069 (147)
 CRD 52=   0.1007 (  8) -0.1050 ( 12) -0.1322 ( 16)  0.1078 ( 54)  0.1078 ( 55)
           0.1051 ( 64)  0.1051 ( 65) -0.1134 ( 68) -0.1134 ( 69) -0.1134 ( 71)
          -0.1134 ( 72)  0.1033 ( 93)  0.1004 ( 99) -0.1160 (111)  0.2051 (112)
          -0.1285 (113) -0.1395 (114) -0.1005 (122)  0.1211 (123) -0.2075 (124)
           0.1252 (125) -0.2678 (128)  0.2699 (135)  0.1685 (138)  0.1132 (139)
          -0.2910 (146)  0.2884 (147)
 CRD 53=  -0.1033 (  2) -0.1078 (  8) -0.1031 ( 13)  0.1258 ( 17)  0.1352 ( 23)
           0.1262 ( 25) -0.1025 ( 67) -0.1025 ( 70) -0.1220 ( 74) -0.1220 ( 76)
          -0.1198 ( 80) -0.1198 ( 81) -0.1026 ( 83) -0.1026 ( 84)  0.1056 ( 87)
           0.1937 (102) -0.1942 (105)  0.1582 (111) -0.2410 (113) -0.1548 (123)
           0.2390 (125) -0.1770 (128)  0.1816 (135) -0.1012 (139)  0.1061 (140)
          -0.1238 (142)  0.1222 (144) -0.2024 (146)  0.1993 (147)
 CRD 54=   0.1513 ( 12)  0.1315 ( 16) -0.1003 ( 39) -0.1003 ( 42) -0.2590 ( 88)
           0.2133 ( 93)  0.1363 ( 94) -0.2090 ( 98)  0.2838 ( 99)  0.2367 (109)
           0.1295 (111) -0.2551 (114)  0.1640 (120) -0.1605 (122) -0.1195 (123)
          -0.1540 (130)  0.1649 (133) -0.1197 (136) -0.2187 (137)  0.2317 (138)
          -0.2527 (139)  0.2675 (140)

 THE DETERMINANT OF THE G MATRIX IS 10**(   -17)


                     --------------------
                     INTERNAL COORDINATES
                     --------------------

                 - - ATOMS - -         COORDINATE      COORDINATE
 NO.   TYPE    I  J  K  L  M  N        (BOHR,RAD)       (ANG,DEG)
 ----------------------------------------------------------------
   1 STRETCH   1  2                     2.4881325       1.3166631
   2 STRETCH   1  4                     2.8591165       1.5129794
   3 STRETCH   1 11                     2.0496508       1.0846285
   4 STRETCH   2  5                     2.8577657       1.5122646
   5 STRETCH   2 12                     2.0448014       1.0820624
   6 STRETCH   3  4                     2.6607911       1.4080301
   7 STRETCH   3  4                     2.6607911       1.4080301
   8 STRETCH   3 13                     2.0468128       1.0831268
   9 STRETCH   3  7                     2.6560596       1.4055263
  10 STRETCH   3  7                     2.6560596       1.4055263
  11 STRETCH   4 14                     2.0527286       1.0862572
  12 STRETCH   4 10                     3.6450606       1.9288832
  13 STRETCH   5  7                     2.9102004       1.5400118
  14 STRETCH   5  6                     2.3108258       1.2228364
  15 STRETCH   7 15                     2.0534591       1.0866438
  16 STRETCH   7  8                     3.6453015       1.9290106
  17 STRETCH   8 16                     2.0485995       1.0840723
  18 STRETCH   8  9                     2.6549728       1.4049512
  19 STRETCH   8  9                     2.6549728       1.4049512
  20 STRETCH   8 17                     2.0504602       1.0850569
  21 STRETCH   9 10                     2.6572427       1.4061524
  22 STRETCH   9 10                     2.6572427       1.4061524
  23 STRETCH   9 18                     2.0483665       1.0839489
  24 STRETCH  10 20                     2.0512149       1.0854563
  25 STRETCH  10 19                     2.0479755       1.0837420
  26 BEND      1  4 10                  1.7533536     100.4597616
  27 BEND      1  2 12                  2.1337448     122.2545699
  28 BEND      1  4  3                  1.9967032     114.4026648
  29 BEND      1  4 14                  1.9841608     113.6840401
  30 BEND      1  2  5                  2.1109982     120.9512896
  31 BEND      1  4  3                  1.9967032     114.4026648
  32 BEND      2  1 11                  2.1163854     121.2599489
  33 BEND      2  1  4                  2.1274672     121.8948936
  34 BEND      2  5  6                  2.1502109     123.1980093
  35 BEND      2  5  7                  1.9931009     114.1962691
  36 BEND      3  7  8                  1.8583135     106.4735183
  37 BEND      3  7 15                  2.0468326     117.2748719
  38 BEND      3  7  5                  2.0143622     115.4144522
  39 BEND      3  4 10                  1.8537512     106.2121178
  40 BEND      3  7  5                  2.0143622     115.4144522
  41 BEND      3  4 14                  2.0473989     117.3073144
  42 BEND      3  4 10                  1.8537512     106.2121178
  43 BEND      3  7  8                  1.8583135     106.4735183
  44 BEND      3  7 15                  2.0468326     117.2748719
  45 BEND      3  4 14                  2.0473989     117.3073144
  46 BEND      4  3  7                  2.0234448     115.9348495
  47 BEND      4  3 13                  2.0775099     119.0325492
  48 BEND      4  3  7                  2.0234448     115.9348495
  49 BEND      4  1 11                  2.0393319     116.8451096
  50 BEND      4  3  7                  2.0234448     115.9348495
  51 BEND      4  3  7                  2.0234448     115.9348495
  52 BEND      4  3 13                  2.0775099     119.0325492
  53 BEND      4 10 20                  1.8241670     104.5170680
  54 BEND      4 10  9                  1.8711723     107.2102770
  55 BEND      4 10  9                  1.8711723     107.2102770
  56 BEND      4 10 19                  1.6749003      95.9647184
  57 BEND      5  2 12                  2.0382978     116.7858606
  58 BEND      5  7  8                  1.7324641      99.2628783
  59 BEND      5  7 15                  1.9632991     112.4887524
  60 BEND      6  5  7                  2.1398701     122.6055264
  61 BEND      7  3 13                  2.0791502     119.1265338
  62 BEND      7  3 13                  2.0791502     119.1265338
  63 BEND      7  8 17                  1.7969449     102.9573600
  64 BEND      7  8  9                  1.8708037     107.1891583
  65 BEND      7  8  9                  1.8708037     107.1891583
  66 BEND      7  8 16                  1.6994680      97.3723412
  67 BEND      8  9 18                  2.0409744     116.9392218
  68 BEND      8  9 10                  2.0739118     118.8263935
  69 BEND      8  9 10                  2.0739118     118.8263935
  70 BEND      8  9 18                  2.0409744     116.9392218
  71 BEND      8  9 10                  2.0739118     118.8263935
  72 BEND      8  9 10                  2.0739118     118.8263935
  73 BEND      8  7 15                  1.8000937     103.1377699
  74 BEND      9 10 19                  2.0411354     116.9484452
  75 BEND      9 10 20                  2.0414143     116.9644243
  76 BEND      9 10 19                  2.0411354     116.9484452
  77 BEND      9 10 20                  2.0414143     116.9644243
  78 BEND      9  8 17                  2.0490549     117.4021957
  79 BEND      9  8 17                  2.0490549     117.4021957
  80 BEND      9  8 16                  2.0362431     116.6681367
  81 BEND      9  8 16                  2.0362431     116.6681367
  82 BEND     10  4 14                  1.7805210     102.0163415
  83 BEND     10  9 18                  2.0420902     117.0031499
  84 BEND     10  9 18                  2.0420902     117.0031499
  85 BEND     16  8 17                  1.9544327     111.9807461
  86 BEND     19 10 20                  1.9547528     111.9990879
  87 TORSION   1  4 10  9              -1.9634880    -112.4995747
  88 TORSION   1  4  3  7               0.7809943      44.7476797
  89 TORSION   1  4 10 19               0.1417686       8.1227419
  90 TORSION   1  4 10 20               2.1417239     122.7117379
  91 TORSION   1  4  3 13              -2.8363052    -162.5083169
  92 TORSION   1  2  5  6               3.1150705     178.4803937
  93 TORSION   1  2  5  7              -0.0292652      -1.6767746
  94 TORSION   2  1  4 10               1.6281815      93.2879292
  95 TORSION   2  1  4 14              -2.7667438    -158.5227449
  96 TORSION   2  5  7  8              -1.5333291     -87.8532884
  97 TORSION   2  5  7 15               2.8567401     163.6791494
  98 TORSION   2  5  7  3               0.4441819      25.4497491
  99 TORSION   2  1  4  3              -0.3492466     -20.0103576
 100 TORSION   3  4 10 19               2.2260363     127.5424828
 101 TORSION   3  4 10 20              -2.0571938    -117.8685212
 102 TORSION   3  4 10  9               0.1207797       6.9201661
 103 TORSION   3  7  5  6              -2.7001356    -154.7063712
 104 TORSION   3  7  8 17               2.1896502     125.4577128
 105 TORSION   3  7  8  9               0.0177973       1.0197100
 106 TORSION   3  7  8 16              -2.0925461    -119.8940611
 107 TORSION   3  4  1 11               2.7909722     159.9109269
 108 TORSION   4  1  2 12               3.1079795     178.0741108
 109 TORSION   4  3  7  5              -0.8374888     -47.9845745
 110 TORSION   4  3  7 15               3.0690301     175.8424698
 111 TORSION   4  3  7  8               1.0657408      61.0624523
 112 TORSION   4 10  9 18              -1.6474325     -94.3909273
 113 TORSION   4 10  9  8               0.9603149      55.0219920
 114 TORSION   4  1  2  5              -0.0147520      -0.8452249
 115 TORSION   5  7  3 13               2.7802809     159.2983640
 116 TORSION   5  7  8 17              -1.9972054    -114.4314424
 117 TORSION   5  7  8  9               2.1141270     121.1305548
 118 TORSION   5  7  8 16               0.0037836       0.2167837
 119 TORSION   5  2  1 11               3.1282747     179.2369354
 120 TORSION   6  5  7 15              -0.2875774     -16.4769710
 121 TORSION   6  5  7  8               1.6055387      91.9905913
 122 TORSION   6  5  2 12              -0.0086544      -0.4958588
 123 TORSION   7  3  4 10              -1.1362077     -65.0999067
 124 TORSION   7  8  9 18               1.5775052      90.3843910
 125 TORSION   7  8  9 10              -1.0305777     -59.0477507
 126 TORSION   7  5  2 12               3.1301952     179.3469729
 127 TORSION   7  3  4 14              -3.1121163    -178.3111298
 128 TORSION   8  9 10 19              -0.8937675     -51.2091046
 129 TORSION   8  9 10 20               3.0001265     171.8945843
 130 TORSION   8  7  3 13              -1.5996747     -91.6546093
 131 TORSION   9  8  7 15              -2.1470707    -123.0180884
 132 TORSION   9 10  4 14               2.2743633     130.3114177
 133 TORSION  10  4  3 13               1.5296781      87.6440967
 134 TORSION  10  9  8 17              -3.0400447    -174.1817324
 135 TORSION  10  9  8 16               0.8508649      48.7509698
 136 TORSION  10  4  1 11              -1.5147850     -86.7907863
 137 TORSION  11  1  4 14               0.3734750      21.3985396
 138 TORSION  11  1  2 12              -0.0321791      -1.8437290
 139 TORSION  13  3  7 15               0.4036145      23.1254082
 140 TORSION  13  3  4 14              -0.4462305     -25.5671263
 141 TORSION  14  4 10 19              -1.9035654    -109.0662657
 142 TORSION  14  4 10 20               0.0963898       5.5227303
 143 TORSION  15  7  8 16               2.0257712     116.0681406
 144 TORSION  15  7  8 17               0.0247822       1.4199145
 145 TORSION  16  8  9 18              -2.8242375    -161.8168885
 146 TORSION  17  8  9 18              -0.4319618     -24.7495907
 147 TORSION  18  9 10 20               0.3923791      22.4816650
 148 TORSION  18  9 10 19               2.7816704     159.3779761

     ------------------------------------------
     THE POINT GROUP IS C1 , NAXIS= 0, ORDER= 1
     ------------------------------------------

     DIMENSIONS OF THE SYMMETRY SUBSPACES ARE
 A   =   60

 ..... DONE SETTING UP THE RUN .....
 STEP CPU TIME =     0.09 TOTAL CPU TIME =          0.1 (      0.0 MIN)
 TOTAL WALL CLOCK TIME=          0.1 SECONDS, CPU UTILIZATION IS    69.23%

          -----------------------------
          INTRINSIC REACTION COORDINATE
          -----------------------------
          PACE   =GS2     
          STRIDE = 0.20000 BOHR*SQRT(AMU)
          NPOINT =      50
          NEXTPT =       0
          STOTAL =  0.0000 BOHR*SQRT(AMU)
          SAB    =  0.0000 BOHR*SQRT(AMU)
          NPRT   =       0
          NPUN   =       0

          SADDLE =       T
          TSENGY =       T
          FORWRD =       F
          EVIB   = 0.00050 HARTREE
          FREQ   =     0.0 CM**-1

          STABLZ =       F
          ELBOW  =  175.00 DEGREES
          DELTA  = 0.02500 BOHR

          READQB =       F
          EB     =        0.0000000000 HARTREES
          GBNORM =        0.0000000000 HARTREES/SQRT(AMU)-BOHR

          GCUT   = 0.0000667 HARTREES/SQRT(AMU)-BOHR
          RCUT   = 0.0006667 BOHR
          ACUT   =    5.00 DEGREES
          MXOPT  =      20
          IHUPD  =       2

 ATOMIC MASSES USED (IN AMU) ARE
     C             12.0000
     C             12.0000
     C             12.0000
     C             12.0000
     C             12.0000
     O             15.9949
     C             12.0000
     C             12.0000
     C             12.0000
     C             12.0000
     H              1.0078
     H              1.0078
     H              1.0078
     H              1.0078
     H              1.0078
     H              1.0078
     H              1.0078
     H              1.0078
     H              1.0078
     H              1.0078

 JUMP AWAY FROM SADDLE POINT WILL BE FOUND FROM THE INPUT HESSIAN MATRIX

 COMPUTING WAVEFUNCTION AT TRANSITION STATE...

          ********************
          1 ELECTRON INTEGRALS
          ********************
 ...... END OF ONE-ELECTRON INTEGRALS ......
 STEP CPU TIME =     0.03 TOTAL CPU TIME =          0.1 (      0.0 MIN)
 TOTAL WALL CLOCK TIME=          0.2 SECONDS, CPU UTILIZATION IS    75.00%

          -------------
          GUESS OPTIONS
          -------------
          GUESS =HUCKEL            NORB  =       0          NORDER=       0
          MIX   =       F          PRTMO =       F          PUNMO =       F
          TOLZ  = 1.0E-08          TOLE  = 1.0E-05
          SYMDEN=       F          PURIFY=       F

 INITIAL GUESS ORBITALS GENERATED BY HUCKEL   ROUTINE.
 HUCKEL GUESS REQUIRES     53820 WORDS.

 SYMMETRIES FOR INITIAL GUESS ORBITALS FOLLOW.   BOTH SET(S).
    36 ORBITALS ARE OCCUPIED (   10 CORE ORBITALS).
    11=A       12=A       13=A       14=A       15=A       16=A       17=A   
    18=A       19=A       20=A       21=A       22=A       23=A       24=A   
    25=A       26=A       27=A       28=A       29=A       30=A       31=A   
    32=A       33=A       34=A       35=A       36=A       37=A       38=A   
    39=A       40=A       41=A       42=A       43=A       44=A       45=A   
    46=A   
 ...... END OF INITIAL ORBITAL SELECTION ......
 STEP CPU TIME =     0.01 TOTAL CPU TIME =          0.1 (      0.0 MIN)
 TOTAL WALL CLOCK TIME=          0.2 SECONDS, CPU UTILIZATION IS    72.22%

                    ----------------------
                    AO INTEGRAL TECHNOLOGY
                    ----------------------
     S,P,L SHELL ROTATED AXIS INTEGRALS, REPROGRAMMED BY
        KAZUYA ISHIMURA (IMS) AND JOSE SIERRA (SYNSTAR).
     S,P,D,L SHELL ROTATED AXIS INTEGRALS PROGRAMMED BY
        KAZUYA ISHIMURA (INSTITUTE FOR MOLECULAR SCIENCE).
     S,P,D,F,G SHELL TO TOTAL QUARTET ANGULAR MOMENTUM SUM 5,
        ERIC PROGRAM BY GRAHAM FLETCHER (ELORET AND NASA ADVANCED
        SUPERCOMPUTING DIVISION, AMES RESEARCH CENTER).
     S,P,D,F,G,L SHELL GENERAL RYS QUADRATURE PROGRAMMED BY
        MICHEL DUPUIS (PACIFIC NORTHWEST NATIONAL LABORATORY).

          --------------------
          2 ELECTRON INTEGRALS
          --------------------

 THE -PK- OPTION IS OFF, THE INTEGRALS ARE NOT IN SUPERMATRIX FORM.
 STORING   15000 INTEGRALS/RECORD ON DISK, USING 12 BYTES/INTEGRAL.
 TWO ELECTRON INTEGRAL EVALUATION REQUIRES   89821 WORDS OF MEMORY.
 SCHWARZ INEQUALITY OVERHEAD:      1797 INTEGRALS, T=        0.00
 II,JST,KST,LST =  1  1  1  1 NREC =         1 INTLOC =    1
 II,JST,KST,LST =  2  1  1  1 NREC =         1 INTLOC =    2
 II,JST,KST,LST =  3  1  1  1 NREC =         1 INTLOC =   34
 II,JST,KST,LST =  4  1  1  1 NREC =         1 INTLOC =  144
 II,JST,KST,LST =  5  1  1  1 NREC =         1 INTLOC = 1366
 II,JST,KST,LST =  6  1  1  1 NREC =         1 INTLOC = 1900
 II,JST,KST,LST =  7  1  1  1 NREC =         1 INTLOC = 6748
 II,JST,KST,LST =  8  1  1  1 NREC =         1 INTLOC = 8550
 II,JST,KST,LST =  9  1  1  1 NREC =         2 INTLOC = 6051
 II,JST,KST,LST = 10  1  1  1 NREC =         2 INTLOC = 9793
 II,JST,KST,LST = 11  1  1  1 NREC =         4 INTLOC = 5202
 II,JST,KST,LST = 12  1  1  1 NREC =         4 INTLOC =11385
 II,JST,KST,LST = 13  1  1  1 NREC =         7 INTLOC = 6280
 II,JST,KST,LST = 14  1  1  1 NREC =         8 INTLOC = 2898
 II,JST,KST,LST = 15  1  1  1 NREC =        12 INTLOC =14472
 II,JST,KST,LST = 16  1  1  1 NREC =        14 INTLOC =  418
 II,JST,KST,LST = 17  1  1  1 NREC =        21 INTLOC = 2315
 II,JST,KST,LST = 18  1  1  1 NREC =        22 INTLOC = 8680
 II,JST,KST,LST = 19  1  1  1 NREC =        32 INTLOC = 7000
 II,JST,KST,LST = 20  1  1  1 NREC =        34 INTLOC = 8337
 II,JST,KST,LST = 21  1  1  1 NREC =        48 INTLOC = 3333
 II,JST,KST,LST = 22  1  1  1 NREC =        52 INTLOC = 2962
 II,JST,KST,LST = 23  1  1  1 NREC =        56 INTLOC = 6349
 II,JST,KST,LST = 24  1  1  1 NREC =        60 INTLOC =14492
 II,JST,KST,LST = 25  1  1  1 NREC =        65 INTLOC =10458
 II,JST,KST,LST = 26  1  1  1 NREC =        70 INTLOC =13160
 II,JST,KST,LST = 27  1  1  1 NREC =        76 INTLOC = 6291
 II,JST,KST,LST = 28  1  1  1 NREC =        82 INTLOC = 1452
 II,JST,KST,LST = 29  1  1  1 NREC =        87 INTLOC =12007
 II,JST,KST,LST = 30  1  1  1 NREC =        94 INTLOC = 2511
 SCHWARZ INEQUALITY TEST SKIPPED       24124 INTEGRAL BLOCKS.
 TOTAL NUMBER OF NONZERO TWO-ELECTRON INTEGRALS =             1491103
        100 INTEGRAL RECORDS WERE STORED ON DISK FILE  8.
  ...... END OF TWO-ELECTRON INTEGRALS .....
 STEP CPU TIME =     0.31 TOTAL CPU TIME =          0.4 (      0.0 MIN)
 TOTAL WALL CLOCK TIME=          0.5 SECONDS, CPU UTILIZATION IS    91.67%

          --------------------------
                 RHF SCF CALCULATION
          --------------------------

     NUCLEAR ENERGY =       511.5087460187
     MAXIT =   30     NPUNCH=    2
     EXTRAP=T  DAMP=F  SHIFT=F  RSTRCT=F  DIIS=F  DEM=F  SOSCF=T
     DENSITY MATRIX CONV=  1.00E-05
     SOSCF WILL OPTIMIZE     864 ORBITAL ROTATIONS, SOGTOL=   0.250
     MEMORY REQUIRED FOR RHF ITERS=     59496 WORDS.

 ITER EX DEM     TOTAL ENERGY        E CHANGE  DENSITY CHANGE     ORB. GRAD
   1  0  0     -415.5138095424  -415.5138095424   0.532463154   0.000000000
          ---------------START SECOND ORDER SCF---------------
   2  1  0     -416.0269696758    -0.5131601335   0.314602606   0.066171272
   3  2  0     -416.0574908192    -0.0305211433   0.158188438   0.049847379
   4  3  0     -416.0929919017    -0.0355010825   0.026863474   0.007825484
   5  4  0     -416.0939315535    -0.0009396519   0.006582161   0.003106222
   6  5  0     -416.0940485225    -0.0001169689   0.002306503   0.000765025
   7  6  0     -416.0940618083    -0.0000132858   0.000682049   0.000259982
   8  7  0     -416.0940637710    -0.0000019627   0.000285634   0.000073361
   9  8  0     -416.0940639749    -0.0000002039   0.000144294   0.000030799
  10  9  0     -416.0940640158    -0.0000000408   0.000079636   0.000017051
  11 10  0     -416.0940640226    -0.0000000068   0.000024202   0.000004097
  12 11  0     -416.0940640239    -0.0000000014   0.000009737   0.000001603
  13 12  0     -416.0940640241    -0.0000000002   0.000004234   0.000000700

          -----------------
          DENSITY CONVERGED
          -----------------
     TIME TO FORM FOCK OPERATORS=       0.2 SECONDS (       0.0 SEC/ITER)
     TIME TO SOLVE SCF EQUATIONS=       0.1 SECONDS (       0.0 SEC/ITER)

 FINAL RHF ENERGY IS     -416.0940640241 AFTER  13 ITERATIONS

          ------------
          EIGENVECTORS
          ------------

                      1          2          3          4          5
                  -20.2647   -11.1198   -11.0568   -11.0499   -11.0471
                     A          A          A          A          A   
    1  C  1  S    0.000005  -0.000271  -0.017948   0.991817   0.008382
    2  C  1  S    0.000054   0.000107  -0.006627   0.035846   0.000232
    3  C  1  X    0.000077  -0.000086   0.004247   0.000642   0.000113
    4  C  1  Y   -0.000004  -0.000020  -0.000782  -0.001519   0.000120
    5  C  1  Z    0.000002  -0.000008   0.000138  -0.000394   0.000019
    6  C  2  S   -0.000025  -0.001007  -0.000975   0.020136  -0.001134
    7  C  2  S    0.000269  -0.005675   0.000302  -0.007398   0.000014
    8  C  2  X    0.000296   0.002357  -0.000154   0.001636   0.000038
    9  C  2  Y   -0.000397   0.003166   0.000076  -0.004058  -0.000014
   10  C  2  Z   -0.000137   0.001180  -0.000021  -0.001314  -0.000052
   11  C  3  S    0.000003  -0.000285   0.003067  -0.001097   0.004027
   12  C  3  S    0.000029   0.000056  -0.006844   0.000033  -0.006634
   13  C  3  X   -0.000066  -0.000043  -0.002482  -0.000138  -0.000941
   14  C  3  Y   -0.000026  -0.000002  -0.002896  -0.000040   0.004281
   15  C  3  Z    0.000014   0.000023  -0.002508   0.000030  -0.000188
   16  C  4  S    0.000003  -0.000243   0.991562   0.018745   0.004235
   17  C  4  S    0.000006  -0.000052   0.036322  -0.004975   0.000161
   18  C  4  X   -0.000006  -0.000068   0.000232  -0.004027  -0.000077
   19  C  4  Y    0.000040   0.000072  -0.000284   0.000886   0.000182
   20  C  4  Z    0.000001   0.000026  -0.001629   0.000191  -0.000059
   21  C  5  S    0.000547   0.992569   0.000254   0.000332   0.002490
   22  C  5  S   -0.007210   0.032680  -0.000002   0.000162  -0.005433
   23  C  5  X   -0.002090   0.000291  -0.000015   0.000058   0.003941
   24  C  5  Y    0.005700  -0.000367  -0.000124  -0.000131  -0.000894
   25  C  5  Z    0.001994  -0.000019  -0.000063  -0.000041  -0.000085
   26  O  6  S    0.994266   0.000160   0.000005   0.000013  -0.000018
   27  O  6  S    0.026006  -0.005798  -0.000052  -0.000116   0.000224
   28  O  6  X   -0.001837   0.000544   0.000017   0.000004  -0.000209
   29  O  6  Y    0.005013  -0.001536  -0.000029  -0.000061   0.000065
   30  O  6  Z    0.001765  -0.000551  -0.000006  -0.000023  -0.000018
   31  C  7  S   -0.000024  -0.001697  -0.004302  -0.008484   0.946038
   32  C  7  S    0.000270  -0.005337  -0.000086  -0.000335   0.035232
   33  C  7  X    0.000041  -0.003847  -0.000123  -0.000123   0.000000
   34  C  7  Y   -0.000431   0.001048  -0.000094  -0.000109   0.000839
   35  C  7  Z   -0.000192   0.000429  -0.000141  -0.000047  -0.000471
   36  C  8  S   -0.000005  -0.000234  -0.000699   0.000887  -0.297797
   37  C  8  S   -0.000002   0.000320  -0.000025   0.000067  -0.013814
   38  C  8  X    0.000017  -0.000023  -0.000040   0.000013  -0.000348
   39  C  8  Y   -0.000015  -0.000063  -0.000076  -0.000020  -0.000769
   40  C  8  Z   -0.000041   0.000262   0.000021  -0.000024   0.002056
   41  C  9  S   -0.000001   0.000011  -0.000488   0.000059  -0.001500
   42  C  9  S    0.000012  -0.000036   0.000324   0.000058   0.002139
   43  C  9  X   -0.000004   0.000037   0.000130   0.000053   0.000466
   44  C  9  Y   -0.000009   0.000054   0.000173  -0.000001  -0.001194
   45  C  9  Z   -0.000004   0.000002  -0.000045  -0.000032  -0.000712
   46  C 10  S   -0.000000   0.000023  -0.026038  -0.005837   0.003732
   47  C 10  S    0.000003  -0.000004  -0.004014   0.000030   0.000110
   48  C 10  X   -0.000001   0.000014  -0.000560  -0.000023   0.000003
   49  C 10  Y    0.000002  -0.000005  -0.000593   0.000035  -0.000004
   50  C 10  Z   -0.000000  -0.000006   0.002602   0.000303   0.000036
   51  H 11  S   -0.000022  -0.000038   0.000206  -0.006826  -0.000112
   52  H 12  S   -0.000191   0.000013  -0.000034   0.000010  -0.000063
   53  H 13  S   -0.000020  -0.000055   0.000086  -0.000084   0.000076
   54  H 14  S   -0.000015  -0.000024  -0.006943  -0.000095  -0.000143
   55  H 15  S   -0.000178  -0.000020  -0.000094   0.000000  -0.006681
   56  H 16  S    0.000085  -0.001089   0.000005  -0.000048   0.002234
   57  H 17  S   -0.000007  -0.000036  -0.000022  -0.000016   0.002217
   58  H 18  S   -0.000002   0.000007  -0.000001   0.000001  -0.000017
   59  H 19  S   -0.000002   0.000007   0.000336  -0.000976  -0.000027
   60  H 20  S   -0.000002   0.000002   0.000335  -0.000018  -0.000012

                      6          7          8          9         10
                  -11.0460   -11.0459   -11.0267   -11.0148   -11.0078
                     A          A          A          A          A   
    1  C  1  S    0.000599   0.005579  -0.019610   0.001154  -0.000067
    2  C  1  S    0.000012   0.000182  -0.008948   0.000135   0.000008
    3  C  1  X    0.000021   0.000047  -0.001704   0.000038  -0.000002
    4  C  1  Y    0.000041   0.000018   0.004173   0.000107  -0.000039
    5  C  1  Z   -0.000008   0.000060   0.001362   0.000153   0.000029
    6  C  2  S   -0.000172   0.000264   0.991965   0.002775  -0.000032
    7  C  2  S    0.000062   0.000026   0.036554   0.000038  -0.000015
    8  C  2  X   -0.000000  -0.000002  -0.000843   0.000181   0.000003
    9  C  2  Y   -0.000032  -0.000008   0.001663  -0.000046  -0.000003
   10  C  2  Z    0.000019   0.000024   0.000452   0.000082   0.000002
   11  C  3  S    0.000658  -0.000609  -0.002683   0.991965   0.017170
   12  C  3  S   -0.001920  -0.000441  -0.000212   0.036579   0.000150
   13  C  3  X   -0.000268  -0.000064  -0.000220   0.000100   0.000193
   14  C  3  Y    0.001229   0.000204   0.000052  -0.000825   0.000142
   15  C  3  Z   -0.000020  -0.000001  -0.000009   0.002465  -0.000571
   16  C  4  S   -0.003295   0.026950   0.000631  -0.002255   0.000391
   17  C  4  S    0.000478  -0.002007   0.000394  -0.007126   0.000042
   18  C  4  X   -0.000153   0.000626   0.000153   0.002583   0.000079
   19  C  4  Y    0.000006   0.000678   0.000066   0.002843   0.000130
   20  C  4  Z    0.000454  -0.002607  -0.000017   0.002526   0.000042
   21  C  5  S    0.001040   0.000179   0.001996   0.000354  -0.000008
   22  C  5  S   -0.001531  -0.000271  -0.005870   0.000110  -0.000015
   23  C  5  X    0.001158   0.000210  -0.002544  -0.000020   0.000018
   24  C  5  Y   -0.000278  -0.000053  -0.003128  -0.000165   0.000019
   25  C  5  Z   -0.000009   0.000003  -0.001134   0.000064   0.000046
   26  O  6  S   -0.000014  -0.000002  -0.000022   0.000008  -0.000000
   27  O  6  S    0.000100   0.000016   0.000248  -0.000084   0.000008
   28  O  6  X   -0.000084  -0.000014   0.000125   0.000030  -0.000001
   29  O  6  Y    0.000021   0.000001   0.000174  -0.000022   0.000007
   30  O  6  Z    0.000027   0.000008   0.000063  -0.000036  -0.000005
   31  C  7  S    0.293660   0.054701   0.001338  -0.003211   0.000509
   32  C  7  S    0.007824   0.001437   0.000231  -0.007191   0.000039
   33  C  7  X    0.000509   0.000075  -0.000003   0.001088   0.000055
   34  C  7  Y    0.000958   0.000175  -0.000030  -0.004470  -0.000148
   35  C  7  Z   -0.002850  -0.000620  -0.000065   0.000206  -0.000046
   36  C  8  S    0.927942   0.186016  -0.000270   0.000792  -0.002540
   37  C  8  S    0.033021   0.006742   0.000091   0.000296  -0.007149
   38  C  8  X   -0.000255  -0.000155   0.000054   0.000009   0.001531
   39  C  8  Y   -0.000116  -0.000131  -0.000062  -0.000034  -0.003847
   40  C  8  Z    0.002172   0.000458   0.000010   0.000060  -0.002098
   41  C  9  S    0.002332   0.003795   0.000073  -0.016938   0.991973
   42  C  9  S   -0.005006  -0.007935   0.000026  -0.001097   0.036618
   43  C  9  X   -0.000853  -0.002824  -0.000002  -0.000035   0.000619
   44  C  9  Y    0.004198  -0.002930   0.000003  -0.000201   0.000676
[...]
   46  C 10  S    0.044011   0.006486  -0.020182   0.001206  -0.005143
   47  C 10  S   -0.301382  -0.040790   0.136783  -0.007129   0.039654
   48  C 10  X   -0.149443   0.014132  -0.064118   0.095553   0.011572
   49  C 10  Y   -0.022508   0.275005  -0.020726  -0.093628  -0.072954
   50  C 10  Z    0.000078   0.228745  -0.053552  -0.048018  -0.054332
   51  H 11  S    0.091427   0.012717   0.156091   0.561114   0.161426
   52  H 12  S    0.345656  -0.151502   0.392965  -0.546370  -0.064742
   53  H 13  S    0.086354   0.204519  -0.271582  -0.562456   0.177377
   54  H 14  S   -0.125587   0.255982  -0.132430   0.424710  -0.369487
   55  H 15  S   -0.387172  -0.627428  -0.356084   0.165677   0.334817
   56  H 16  S   -0.807353  -0.172585   0.527493  -0.044287  -0.008511
   57  H 17  S   -0.500018   0.739162   0.322077  -0.160530  -0.099726
   58  H 18  S    0.155548  -0.267356   0.116358  -0.047331  -0.028326
   59  H 19  S    0.301661   0.023423  -0.027130  -0.075919  -0.027268
   60  H 20  S    0.090576  -0.252117  -0.047744   0.112960   0.052902

                     56         57         58         59         60
                    0.9412     0.9768     1.0246     1.0500     1.1410
                     A          A          A          A          A   
    1  C  1  S    0.007336   0.043482   0.032203   0.013722   0.069701
    2  C  1  S   -0.061100  -0.371668  -0.231281  -0.106119  -0.576509
    3  C  1  X   -0.250119  -0.754423   0.359854   0.031069  -0.024590
    4  C  1  Y    0.027836   0.343757  -0.065336   0.089091   0.864127
    5  C  1  Z   -0.057489  -0.127188   0.084478   0.013116   0.038489
    6  C  2  S   -0.011043  -0.045097   0.000182  -0.009073  -0.071709
    7  C  2  S    0.090214   0.371497  -0.015806   0.071552   0.596416
    8  C  2  X    0.142627   0.133669  -0.462812  -0.104921  -0.483919
    9  C  2  Y    0.148222   0.722850  -0.080786   0.078177   0.683375
   10  C  2  Z    0.045031   0.112634  -0.082715  -0.009765  -0.004775
   11  C  3  S    0.001169  -0.036377  -0.052762  -0.003449   0.069297
   12  C  3  S   -0.005597   0.275098   0.448541   0.029973  -0.571432
   13  C  3  X    0.087460   0.674622   0.305822   0.042896  -0.570701
   14  C  3  Y    0.002777   0.003326   0.755754   0.118071  -0.334824
   15  C  3  Z    0.008946   0.151144  -0.047797   0.000498  -0.073407
   16  C  4  S    0.016107   0.074577   0.048129   0.007779  -0.058748
   17  C  4  S   -0.112006  -0.554268  -0.416208  -0.066744   0.480604
   18  C  4  X   -0.117554  -0.185402   0.785856   0.104661  -0.340983
   19  C  4  Y    0.117169   0.601339   0.281254  -0.000508  -0.719409
   20  C  4  Z   -0.034482  -0.117273   0.132922   0.015874  -0.013179
   21  C  5  S   -0.015065  -0.061037  -0.038887  -0.011700  -0.015308
   22  C  5  S    0.102329   0.412519   0.267032   0.080877   0.109965
   23  C  5  X    0.062913   0.310242   0.066413   0.009435   0.292978
   24  C  5  Y    0.029937  -0.082496  -0.726438  -0.125531  -0.446285
   25  C  5  Z   -0.001777  -0.013192  -0.238927  -0.039402  -0.155586
   26  O  6  S    0.003933   0.029821   0.064246   0.012025   0.040316
   27  O  6  S   -0.027417  -0.218322  -0.486252  -0.091381  -0.313781
   28  O  6  X   -0.004581   0.024274   0.195897   0.037507   0.081692
   29  O  6  Y   -0.032648  -0.223161  -0.431310  -0.081655  -0.281664
   30  O  6  Z   -0.010052  -0.100024  -0.189724  -0.034701  -0.119967
   31  C  7  S    0.004563   0.002936  -0.032556  -0.011382  -0.016739
   32  C  7  S   -0.032417  -0.011903   0.219805   0.076183   0.111861
   33  C  7  X    0.012173  -0.083835  -0.069632  -0.088582   0.261698
   34  C  7  Y    0.060059  -0.251866   0.333423   0.046885   0.124461
   35  C  7  Z    0.046836  -0.054321   0.005488  -0.009341   0.025753
   36  C  8  S    0.055896  -0.009212   0.002153   0.011149  -0.001973
   37  C  8  S   -0.365825   0.062372  -0.008498  -0.071129   0.013333
   38  C  8  X   -0.016250   0.008682  -0.037046   0.344898  -0.068993
   39  C  8  Y   -0.301275   0.129361  -0.096397  -0.033932  -0.023887
   40  C  8  Z   -0.269810   0.096555  -0.011888   0.082382  -0.024616
   41  C  9  S    0.016264  -0.003524  -0.019866   0.104472  -0.006340
   42  C  9  S   -0.141600   0.038134   0.156633  -0.851224   0.050170
   43  C  9  X    0.721099  -0.134813   0.162950  -0.680882   0.058594
   44  C  9  Y   -0.494683   0.146772   0.056549  -0.639081   0.036683
   45  C  9  Z   -0.242755   0.096177   0.082619  -0.705480   0.037263
   46  C 10  S   -0.008929   0.005778   0.018037  -0.110855   0.006861
   47  C 10  S    0.062728  -0.045719  -0.144226   0.895241  -0.057329
   48  C 10  X   -0.785425   0.183702   0.051952  -0.612887   0.030041
   49  C 10  Y    0.450311  -0.059952   0.131023  -0.637217   0.039302
   50  C 10  Z    0.188546  -0.008777   0.122364  -0.675349   0.041679
   51  H 11  S    0.128250   0.292697  -0.058344  -0.026025  -0.227069
   52  H 12  S   -0.113708  -0.112801   0.297567   0.056978   0.210196
   53  H 13  S    0.052787   0.384740  -0.069947   0.000564  -0.127783
   54  H 14  S   -0.067347  -0.269562   0.085263   0.038478   0.238251
   55  H 15  S    0.057290  -0.148261   0.026134  -0.044944   0.091345
   56  H 16  S    0.127778  -0.028408  -0.003789  -0.207675   0.026173
   57  H 17  S   -0.058898   0.056522  -0.057539   0.155419  -0.042920
   58  H 18  S    0.615030  -0.123806   0.060400  -0.142835   0.020406
   59  H 19  S    0.584283  -0.120352   0.020063   0.103589  -0.000158
   60  H 20  S   -0.595741   0.107559  -0.050101   0.103345  -0.007565


                     --------------------
                     INTERNAL COORDINATES
                     --------------------

                 - - ATOMS - -         COORDINATE      COORDINATE
 NO.   TYPE    I  J  K  L  M  N        (BOHR,RAD)       (ANG,DEG)
 ----------------------------------------------------------------
   1 STRETCH   1  2                     2.4936288       1.3195716
   2 STRETCH   1  4                     2.8089805       1.4864486
   3 STRETCH   1 11                     2.0490214       1.0842955
   4 STRETCH   2  5                     2.8584860       1.5126458
   5 STRETCH   2 12                     2.0455901       1.0824798
   6 STRETCH   3  4                     2.4871712       1.3161544
   7 STRETCH   3  4                     2.4871712       1.3161544
   8 STRETCH   3 13                     2.0477982       1.0836482
   9 STRETCH   3  7                     2.8852527       1.5268101
  10 STRETCH   3  7                     2.8852527       1.5268101
  11 STRETCH   4 14                     2.0451039       1.0822225
  12 STRETCH   4 10                     6.7047494       3.5480008
  13 STRETCH   5  7                     2.9338850       1.5525452
  14 STRETCH   5  6                     2.3102022       1.2225064
  15 STRETCH   7 15                     2.0588317       1.0894869
  16 STRETCH   7  8                     2.9929880       1.5838212
  17 STRETCH   8 16                     2.0554684       1.0877071
  18 STRETCH   8  9                     2.8847559       1.5265472
  19 STRETCH   8  9                     2.8847559       1.5265472
  20 STRETCH   8 17                     2.0560264       1.0880024
  21 STRETCH   9 10                     2.4734897       1.3089145
  22 STRETCH   9 10                     2.4734897       1.3089145
  23 STRETCH   9 18                     2.0495080       1.0845530
  24 STRETCH  10 20                     2.0431241       1.0811748
  25 STRETCH  10 19                     2.0439068       1.0815890
  26 BEND      1  4 10                  1.5285994      87.5822949
  27 BEND      1  2 12                  2.1355494     122.3579670
  28 BEND      1  4  3                  2.1136407     121.1026916
  29 BEND      1  4 14                  2.0511345     117.5213508
  30 BEND      1  2  5                  2.1006006     120.3555460
  31 BEND      1  4  3                  2.1136407     121.1026916
  32 BEND      2  1 11                  2.1150236     121.1819268
  33 BEND      2  1  4                  2.1158991     121.2320878
  34 BEND      2  5  6                  2.1415266     122.7004339
  35 BEND      2  5  7                  2.0066265     114.9712312
  36 BEND      3  7  8                  1.9561896     112.0814068
  37 BEND      3  7 15                  1.9062179     109.2182409
  38 BEND      3  7  5                  1.9353813     110.8891792
  39 BEND      3  4 10                  1.2783273      73.2427580
  40 BEND      3  7  5                  1.9353813     110.8891792
  41 BEND      3  4 14                  2.1184042     121.3756194
  42 BEND      3  4 10                  1.2783273      73.2427580
  43 BEND      3  7  8                  1.9561896     112.0814068
  44 BEND      3  7 15                  1.9062179     109.2182409
  45 BEND      3  4 14                  2.1184042     121.3756194
  46 BEND      4  3  7                  2.1320133     122.1553659
  47 BEND      4  3 13                  2.1148923     121.1744012
  48 BEND      4  3  7                  2.1320133     122.1553659
  49 BEND      4  1 11                  2.0518254     117.5609329
  50 BEND      4  3  7                  2.1320133     122.1553659
  51 BEND      4  3  7                  2.1320133     122.1553659
  52 BEND      4  3 13                  2.1148923     121.1744012
  53 BEND      4 10 20                  1.9729600     113.0422819
  54 BEND      4 10  9                  1.2713311      72.8419074
  55 BEND      4 10  9                  1.2713311      72.8419074
  56 BEND      4 10 19                  1.4938566      85.5916801
  57 BEND      5  2 12                  2.0452059     117.1816691
  58 BEND      5  7  8                  1.8971410     108.6981730
  59 BEND      5  7 15                  1.8806267     107.7519720
  60 BEND      6  5  7                  2.1349068     122.3211493
  61 BEND      7  3 13                  2.0352254     116.6098259
  62 BEND      7  3 13                  2.0352254     116.6098259
  63 BEND      7  8 17                  1.8928276     108.4510300
  64 BEND      7  8  9                  1.9922467     114.1473270
  65 BEND      7  8  9                  1.9922467     114.1473270
  66 BEND      7  8 16                  1.9010226     108.9205735
  67 BEND      8  9 18                  2.0178779     115.6158846
  68 BEND      8  9 10                  2.1724454     124.4719547
  69 BEND      8  9 10                  2.1724454     124.4719547
  70 BEND      8  9 18                  2.0178779     115.6158846
  71 BEND      8  9 10                  2.1724454     124.4719547
  72 BEND      8  9 10                  2.1724454     124.4719547
  73 BEND      8  7 15                  1.8861354     108.0675991
  74 BEND      9 10 19                  2.1329652     122.2099058
  75 BEND      9 10 20                  2.1286812     121.9644479
  76 BEND      9 10 19                  2.1329652     122.2099058
  77 BEND      9 10 20                  2.1286812     121.9644479
  78 BEND      9  8 17                  1.9061310     109.2132621
  79 BEND      9  8 17                  1.9061310     109.2132621
  80 BEND      9  8 16                  1.8997248     108.8462124
  81 BEND      9  8 16                  1.8997248     108.8462124
  82 BEND     10  4 14                  1.9216378     110.1017340
  83 BEND     10  9 18                  2.0926264     119.8986628
  84 BEND     10  9 18                  2.0926264     119.8986628
  85 BEND     16  8 17                  1.8679614     107.0263073
  86 BEND     19 10 20                  2.0215387     115.8256370
  87 TORSION   1  4 10  9              -2.1364160    -122.4076226
  88 TORSION   1  4  3  7               0.0448327       2.5687272
  89 TORSION   1  4 10 19               0.0571749       3.2758831
  90 TORSION   1  4 10 20               2.0858182     119.5085777
  91 TORSION   1  4  3 13               3.1354102     179.6457741
  92 TORSION   1  2  5  6               2.7334046     156.6125467
  93 TORSION   1  2  5  7              -0.4248570     -24.3425121
  94 TORSION   2  1  4 10               1.4005225      80.2440298
  95 TORSION   2  1  4 14              -2.9372787    -168.2936733
  96 TORSION   2  5  7  8              -1.5546667     -89.0758433
  97 TORSION   2  5  7 15               2.6885596     154.0431192
  98 TORSION   2  5  7  3               0.6032399      34.5631005
  99 TORSION   2  1  4  3               0.2006713      11.4976173
 100 TORSION   3  4 10 19               2.2135438     126.8267147
 101 TORSION   3  4 10 20              -2.0409983    -116.9405908
 102 TORSION   3  4 10  9               0.0199528       1.1432089
 103 TORSION   3  7  5  6              -2.5549515    -146.3879370
 104 TORSION   3  7  8 17               2.1078112     120.7686850
 105 TORSION   3  7  8  9              -0.0213074      -1.2208223
 106 TORSION   3  7  8 16              -2.1482267    -123.0843255
 107 TORSION   3  4  1 11              -2.9723366    -170.3023413
 108 TORSION   4  1  2 12               3.0855081     176.7865922
 109 TORSION   4  3  7  5              -0.4376310     -25.0744074
 110 TORSION   4  3  7 15              -2.5075404    -143.6714833
 111 TORSION   4  3  7  8               1.6860261      96.6021783
 112 TORSION   4 10  9 18              -1.8567584    -106.3844185
 113 TORSION   4 10  9  8               1.2604527      72.2186213
 114 TORSION   4  1  2  5               0.0107345       0.6150395
 115 TORSION   5  7  3 13               2.7527793     157.7226371
 116 TORSION   5  7  8 17              -2.0299453    -116.3072979
 117 TORSION   5  7  8  9               2.1241215     121.7031949
 118 TORSION   5  7  8 16              -0.0027979      -0.1603084
 119 TORSION   5  2  1 11              -3.0983046    -177.5197754
 120 TORSION   6  5  7 15              -0.4696318     -26.9079184
 121 TORSION   6  5  7  8               1.5703272      89.9731192
 122 TORSION   6  5  2 12              -0.3447420     -19.7522596
 123 TORSION   7  3  4 10              -1.2906906     -73.9511265
 124 TORSION   7  8  9 18               1.4654159      83.9621441
 125 TORSION   7  8  9 10              -1.6527365     -94.6948257
 126 TORSION   7  5  2 12               2.7801818     159.2926816
 127 TORSION   7  3  4 14              -3.1005437    -177.6480655
 128 TORSION   8  9 10 19              -0.0165544      -0.9484947
 129 TORSION   8  9 10 20               3.1256756     179.0880193
 130 TORSION   8  7  3 13              -1.4067489     -80.6007772
 131 TORSION   9  8  7 15              -2.1226324    -121.6178775
 132 TORSION   9 10  4 14               2.0786904     119.1001853
 133 TORSION  10  4  3 13               1.7998869     103.1259204
 134 TORSION  10  9  8 17               2.5086539     143.7352795
 135 TORSION  10  9  8 16               0.4748965      27.2095669
 136 TORSION  10  4  1 11              -1.7724853    -101.5559288
 137 TORSION  11  1  4 14               0.1728987       9.9063681
 138 TORSION  11  1  2 12              -0.0235309      -1.3482228
 139 TORSION  13  3  7 15               0.6828699      39.1255612
 140 TORSION  13  3  4 14              -0.0099662      -0.5710186
 141 TORSION  14  4 10 19              -2.0109039    -115.2163090
 142 TORSION  14  4 10 20               0.0177393       1.0163856
 143 TORSION  15  7  8 16               2.0336335     116.5186192
 144 TORSION  15  7  8 17               0.0064862       0.3716297
 145 TORSION  16  8  9 18              -2.6901364    -154.1334634
 146 TORSION  17  8  9 18              -0.6563791     -37.6077508
 147 TORSION  18  9 10 20               0.0084645       0.4849795
 148 TORSION  18  9 10 19              -3.1337655    -179.5515345

 THE NUCLEAR REPULSION AT THE IRC POINT IS      495.2102261336

 * * * IRC RESTART INFORMATION * * *
 COORDINATES FOR $DATA AND ENTIRE $IRC GROUP FOLLOW

 COORDINATES OF SYMMETRY UNIQUE ATOMS (ANGS)
   ATOM   CHARGE       X              Y              Z
 ------------------------------------------------------------
 C           6.0   1.0081470647   1.0125089887   0.0323529481
 C           6.0   1.4320525954  -0.2370103362   0.0157765970
 C           6.0  -1.3264383790   0.4147260633  -0.3618586734
 C           6.0  -0.4051924239   1.3511081899  -0.2796589435
 C           6.0   0.4838402601  -1.3613007019  -0.3377227291
 O           8.0   0.8682982943  -2.4380717041  -0.7704792337
 C           6.0  -1.0176431671  -1.0552662989  -0.0881489841
 C           6.0  -1.3813751824  -1.4738448991   1.3954211829
 C           6.0  -1.9311305594  -0.3338522536   2.2489621402
 C           6.0  -1.2073124401   0.4104875801   3.0460208686
 H           1.0   1.6852769243   1.8322853261   0.2448587220
 H           1.0   2.4675882037  -0.4998422568   0.1899828274
 H           1.0  -2.3582013952   0.6608312918  -0.5836484540
 H           1.0  -0.6459760182   2.3940156633  -0.4395737205
 H           1.0  -1.6006281197  -1.6766399123  -0.7671224870
 H           1.0  -0.4924990209  -1.8758542321   1.8764559448
 H           1.0  -2.1137491109  -2.2775118706   1.3567288791
 H           1.0  -2.9937331544  -0.1421356816   2.1471009903
 H           1.0  -0.1439170876   0.2570116844   3.1703999165
 H           1.0  -1.6372101580   1.2180352257   3.6222098074
 $IRC   PACE=GS2        STRIDE= 0.20000   NPOINT=??
        STOTAL=  9.995659   NEXTPT=  51
        NPRT= 0   NPUN= 0   SADDLE=.FALSE.
        GA(   1)=-3.153826110E-04,-2.673996791E-04, 1.144626565E-03
        GA(   4)=-2.376684913E-04,-2.553618962E-04, 8.088613012E-04
        GA(   7)=-9.616914045E-05,-2.080133207E-04,-3.701207157E-07
        GA(  10)=-1.742875426E-04,-2.260814046E-04, 5.631974165E-04
        GA(  13)=-9.146451218E-05,-7.104262469E-05,-9.270502236E-05
        GA(  16)= 3.121164698E-06, 3.136604889E-04,-1.054106445E-03
        GA(  19)=-1.103130577E-04,-2.012593996E-04,-8.325770426E-06
        GA(  22)= 1.373575578E-04,-2.144454754E-04, 5.617185515E-05
        GA(  25)= 2.212445687E-04,-2.128151562E-04, 1.591394543E-04
        GA(  28)= 6.261915591E-04, 1.227766080E-03,-1.613367194E-03
        GA(  31)=-2.289056608E-05, 5.842965173E-07, 1.566443128E-04
        GA(  34)=-2.068914697E-05,-2.064287461E-05, 1.000384589E-04
        GA(  37)= 2.582294449E-06,-2.134513900E-05,-2.745826473E-05
        GA(  40)=-1.036489870E-05,-1.153156952E-05, 5.781186039E-05
        GA(  43)=-6.760172947E-06,-1.700294824E-05, 4.338351938E-06
        GA(  46)= 2.036861347E-05,-7.815866721E-06,-5.452985803E-06
        GA(  49)= 2.258756721E-05,-1.169340968E-05, 1.748671950E-05
        GA(  52)=-6.870563323E-05,-1.222044378E-04, 1.397256257E-04
        GA(  55)= 7.672289542E-05, 2.221493682E-04,-2.748542966E-04
        GA(  58)= 4.451954240E-05, 1.044949708E-04,-1.314018178E-04
 $END   
 A GS2 RESTART ALSO REQUIRES THE UPDATED $HESS GROUP FROM THE PUNCH FILE
 ......DONE WITH THIS PORTION OF THE IRC......
 STEP CPU TIME =     0.02 TOTAL CPU TIME =        140.3 (      2.3 MIN)
 TOTAL WALL CLOCK TIME=        145.1 SECONDS, CPU UTILIZATION IS    96.75%
               580000  WORDS OF DYNAMIC MEMORY USED
 EXECUTION OF GAMESS TERMINATED NORMALLY Mon Nov 15 04:01:41 2021
 DDI: 263640 bytes (0.3 MB / 0 MWords) used by master data server.

 ----------------------------------------
 CPU timing information for all processes
 ========================================
 0: 128.708 + 11.640 = 140.349
 ----------------------------------------
 ddikick.x: exited gracefully.
----- accounting info -----
Files used on the master node chemcompute-node-0.novalocal were:
-rw-r--r--. 1 chemcomp chemcomp    60736 Nov 15 03:59 /scratch/306651/342665.F05
-rw-rw-r--. 1 chemcomp chemcomp 17281536 Nov 15 04:01 /scratch/306651/342665.F08
-rw-rw-r--. 1 chemcomp chemcomp 65536000 Nov 15 04:01 /scratch/306651/342665.F10
Mon Nov 15 04:01:44 UTC 2021
0.131u 0.095s 2:28.61 0.1%	0+0k 120+328io 0pf+0w
Finishing Up...
Looking for IR data...
Looking for Raman data...
vibramans not found
Looking for thermodynamics data...
Looking for UV-Vis data...
306651
