----- GAMESS execution script 'rungms' -----
This job is running on host chemcompute-node-0.novalocal
under operating system Linux at Mon Nov 15 03:43:28 UTC 2021
SLURM has assigned the following compute nodes to this run:
chemcompute-node-0
Available scratch disk space (Kbyte units) at beginning of the job is
Filesystem     1K-blocks     Used Available Use% Mounted on
/dev/sda1       62903276 17619900  45283376  29% /
GAMESS temporary binary files will be written to /scratch/306639
GAMESS supplementary output files will be written to /data/slurm/342653
Copying input file 342653.inp to your run's scratch directory...
The generated host list is
chemcompute-node-0.novalocal

 Distributed Data Interface kickoff program.
 Initiating 1 compute processes on 1 nodes to run the following command:
 /data/gamess-2019R1-ddi/gamess.00.x 342653 

          ******************************************************
          *         GAMESS VERSION = 30 JUN 2019 (R1)          *
          *             FROM IOWA STATE UNIVERSITY             *
          * M.W.SCHMIDT, K.K.BALDRIDGE, J.A.BOATZ, S.T.ELBERT, *
          *   M.S.GORDON, J.H.JENSEN, S.KOSEKI, N.MATSUNAGA,   *
          *          K.A.NGUYEN, S.J.SU, T.L.WINDUS,           *
          *       TOGETHER WITH M.DUPUIS, J.A.MONTGOMERY       *
          *         J.COMPUT.CHEM.  14, 1347-1363(1993)        *
          **************** 64 BIT LINUX VERSION ****************

  SINCE 1993, STUDENTS AND POSTDOCS WORKING AT IOWA STATE UNIVERSITY
  AND ALSO IN THEIR VARIOUS JOBS AFTER LEAVING ISU HAVE MADE IMPORTANT
  CONTRIBUTIONS TO THE CODE:
     IVANA ADAMOVIC, CHRISTINE AIKENS, YURI ALEXEEV, POOJA ARORA,
     ANDREY ASADCHEV, ROB BELL, PRADIPTA BANDYOPADHYAY, JONATHAN BENTZ,
     COLLEEN BERTONI, BRETT BODE, KURT BRORSEN, CALEB CARLIN, GALINA CHABAN,
     WEI CHEN, CHEOL HO CHOI, PAUL DAY, ALBERT DEFUSCO, NUWAN DESILVA,
     TIM DUDLEY, DMITRI FEDOROV, ALEX FINDLATER, GRAHAM FLETCHER, 
     MARK FREITAG, KURT GLAESEMANN, ANASTASIA GUNINA,
     DAN KEMP, GRANT MERRILL, NORIYUKI MINEZAWA, JONATHAN MULLIN,
     TAKESHI NAGATA, SEAN NEDD, HEATHER NETZLOFF, BOSILJKA NJEGIC, RYAN OLSON,
     MIKE PAK, BUU PHAM,
     SPENCER PRUITT, LUKE ROSKOP, JIM SHOEMAKER, LYUDMILA SLIPCHENKO,
     TONY SMITH, SAROM SOK LEANG, JIE SONG, TETSUYA TAKETSUGU, SIMON WEBB,
     PENG XU, SOOHAENG YOO, FEDERICO ZAHARIEV

  ADDITIONAL CODE HAS BEEN PROVIDED BY COLLABORATORS IN OTHER GROUPS:
     IOWA STATE UNIVERSITY:
          JOE IVANIC, AARON WEST, LAIMUTIS BYTAUTAS, KLAUS RUEDENBERG
     UNIVERSITY OF TOKYO: KIMIHIKO HIRAO, TAKAHITO NAKAJIMA,
          TAKAO TSUNEDA, MUNEAKI KAMIYA, SUSUMU YANAGISAWA,
          KIYOSHI YAGI, MAHITO CHIBA, SEIKEN TOKURA, NAOAKI KAWAKAMI
     UNIVERSITY OF AARHUS: FRANK JENSEN
     UNIVERSITY OF IOWA: VISVALDAS KAIRYS, HUI LI
     NATIONAL INST. OF STANDARDS AND TECHNOLOGY: WALT STEVENS, DAVID GARMER
     UNIVERSITY OF PISA: BENEDETTA MENNUCCI, JACOPO TOMASI
     UNIVERSITY OF MEMPHIS: HENRY KURTZ, PRAKASHAN KORAMBATH
     UNIVERSITY OF ALBERTA: TOBY ZENG, MARIUSZ KLOBUKOWSKI
     UNIVERSITY OF NEW ENGLAND: MARK SPACKMAN
     MIE UNIVERSITY: HIROAKI UMEDA
     NAT. INST. OF ADVANCED INDUSTRIAL SCIENCE AND TECHNOLOGY: KAZUO KITAURA
     MICHIGAN STATE UNIVERSITY:
          KAROL KOWALSKI, MARTA WLOCH, JEFFREY GOUR, JESSE LUTZ,
          WEI LI, JUN SHEN, J. EMILIANO DEUSTUA, PIOTR PIECUCH
     UNIVERSITY OF MINNESOTA:
          YINAN SHU
     UNIVERSITY OF SILESIA: MONIKA MUSIAL, STANISLAW KUCHARSKI
     FACULTES UNIVERSITAIRES NOTRE-DAME DE LA PAIX:
          OLIVIER QUINET, BENOIT CHAMPAGNE
     UNIVERSITY OF CALIFORNIA - SANTA BARBARA: BERNARD KIRTMAN
     INSTITUTE FOR MOLECULAR SCIENCE:
          KAZUYA ISHIMURA, MICHIO KATOUDA, AND SHIGERU NAGASE
     UNIVERSITY OF NOTRE DAME: ANNA POMOGAEVA, DAN CHIPMAN
     KYUSHU UNIVERSITY:
          HARUYUKI NAKANO,
          FENG LONG GU, JACEK KORCHOWIEC, MARCIN MAKOWSKI, AND YURIKO AOKI,
          HIROTOSHI MORI AND EISAKU MIYOSHI
     PENNSYLVANIA STATE UNIVERSITY:
          TZVETELIN IORDANOV, CHET SWALINA, JONATHAN SKONE,
          SHARON HAMMES-SCHIFFER
     WASEDA UNIVERSITY:
          MASATO KOBAYASHI, TOMOKO AKAMA, TSUGUKI TOUMA,
          TAKESHI YOSHIKAWA, YASUHIRO IKABATA, JUNJI SEINO,
          YUYA NAKAJIMA, HIROMI NAKAI
     NANJING UNIVERSITY: SHUHUA LI
     UNIVERSITY OF NEBRASKA:
          PEIFENG SU, DEJUN SI, NANDUN THELLAMUREGE, YALI WANG, HUI LI
     UNIVERSITY OF ZURICH: ROBERTO PEVERATI, KIM BALDRIDGE
     N. COPERNICUS UNIVERSITY AND JACKSON STATE UNIVERSITY:
          MARIA BARYSZ
     UNIVERSITY OF COPENHAGEN: Jimmy Kromann, CASPER STEINMANN
     TOKYO INSTITUTE OF TECHNOLOGY: HIROYA NAKATA
     NAGOYA UNIVERSITY: YOSHIO NISHIMOTO, STEPHAN IRLE
     MOSCOW STATE UNIVERSITY: VLADIMIR MIRONOV
     A.N.NESMEYANOV INSTITUTE OF ORGANOELEMENT COMPOUNDS OF RUSSIAN ACADEMY OF SCIENCES:
          IGOR S. GERASIMOV

 EXECUTION OF GAMESS BEGUN Mon Nov 15 03:43:28 2021

            ECHO OF THE FIRST FEW INPUT CARDS -
 INPUT CARD>!File created by the GAMESS Input Deck Generator Plugin for Avogadro            
 INPUT CARD> $BASIS GBASIS=STO NGAUSS=3 $END                                                
 INPUT CARD> $CONTRL SCFTYP=RHF RUNTYP=SADPOINT NZVAR=1 mult=1  ICHARG=0 $END               
 INPUT CARD> $STATPT hssend=.t. OPTTOL=0.0005 NSTEP=50 $END                                 
 INPUT CARD> $STATPT HESS=calc ihrep=5 $END                                                 
 INPUT CARD> $FORCE nvib=2 $END                                                             
 INPUT CARD> $ZMAT DLC=.t. auto=.t. nonvdw(1)=4,10,7,8,4,3,3,7,8,9,9,10 $END                
 INPUT CARD>!$ZMAT IFZMAT(1)=1,4,10,1,7,8 fvalue(1)=2.00,2.00 $END                          
 INPUT CARD>                                                                                
 INPUT CARD> $DATA                                                                          
 INPUT CARD>Title                                                                           
 INPUT CARD>C1                                                                              
 INPUT CARD>C     6.0     0.90914845     0.92890561     0.38239190                          
 INPUT CARD>C     6.0     1.38525856    -0.24328940     0.01396189                          
 INPUT CARD>C     6.0    -1.35134995     0.35410091    -0.39008611                          
 INPUT CARD>C     6.0    -0.56881034     1.22233725     0.38373062                          
 INPUT CARD>C     6.0     0.46027294    -1.36193693    -0.40720156                          
 INPUT CARD>O     8.0     0.86095500    -2.45892119    -0.77299923                          
 INPUT CARD>C     6.0    -1.03144944    -1.00830734    -0.33049718                          
 INPUT CARD>C     6.0    -1.35477376    -1.53713858     1.57102823                          
 INPUT CARD>C     6.0    -1.81529140    -0.38461587     2.21922779                          
 INPUT CARD>C     6.0    -0.99731362     0.74888027     2.27904677                          
 INPUT CARD>H     1.0     1.56949687     1.72956455     0.69731206                          
 INPUT CARD>H     1.0     2.44695163    -0.44971308    -0.01918874                          
 INPUT CARD>H     1.0    -2.36068368     0.64746583    -0.65165722                          
 INPUT CARD>H     1.0    -0.81741858     2.27908492     0.37192616                          
 INPUT CARD>H     1.0    -1.66432703    -1.70287943    -0.87532914                          
 INPUT CARD>H     1.0    -0.34141588    -1.85722065     1.78270710                          
 INPUT CARD>H     1.0    -2.04127550    -2.37000775     1.46277988                          
 INPUT CARD>H     1.0    -2.88689065    -0.22286396     2.23561954                          
 INPUT CARD>H     1.0     0.03575265     0.60928863     2.57293820                          
 INPUT CARD>H     1.0    -1.42741382     1.66101432     2.67948461                          
 INPUT CARD> $END                                                                           
    1000000 WORDS OF MEMORY AVAILABLE

     BASIS OPTIONS
     -------------
     GBASIS=STO          IGAUSS=       3      POLAR=NONE    
     NDFUNC=       0     NFFUNC=       0     DIFFSP=       F
     NPFUNC=       0      DIFFS=       F     BASNAM=        


     RUN TITLE
     ---------
 Title                                                                           

 THE POINT GROUP OF THE MOLECULE IS C1      
 THE ORDER OF THE PRINCIPAL AXIS IS     0

 ATOM      ATOMIC                      COORDINATES (BOHR)
           CHARGE         X                   Y                   Z
 C           6.0     1.7180414527        1.7553770714        0.7226159109
 C           6.0     2.6177591005       -0.4597503017        0.0263841464
 C           6.0    -2.5536811190        0.6691536919       -0.7371558595
 C           6.0    -1.0748956816        2.3098824671        0.7251457249
 C           6.0     0.8697897362       -2.5736876103       -0.7694993702
 O           8.0     1.6269690378       -4.6466872745       -1.4607567334
 C           6.0    -1.9491568118       -1.9054245840       -0.6245491099
 C           6.0    -2.5601511818       -2.9047707214        2.9688128737
 C           6.0    -3.4304033339       -0.7268186048        4.1937324274
 C           6.0    -1.8846494656        1.4151785079        4.3067739085
 H           1.0     2.9659190229        3.2684030776        1.3177287213
 H           1.0     4.6240680859       -0.8498344943       -0.0362614606
 H           1.0    -4.4610452989        1.2235330051       -1.2314535837
 H           1.0    -1.5446971335        4.3068460015        0.7028385301
 H           1.0    -3.1451220407       -3.2179755128       -1.6541322237
 H           1.0    -0.6451824611       -3.5096381272        3.3688279354
 H           1.0    -3.8574513604       -4.4786652363        2.7642531536
 H           1.0    -5.4554322850       -0.4211518169        4.2247083434
 H           1.0     0.0675627118        1.1513885581        4.8621481813
 H           1.0    -2.6974209909        3.1388619265        5.0634917012

          INTERNUCLEAR DISTANCES (ANGS.)
          ------------------------------

                1 C          2 C          3 C          4 C          5 C     

   1 C       0.0000000    1.3177491 *  2.4570258 *  1.5068066 *  2.4643268 *
   2 C       1.3177491 *  0.0000000    2.8300452 *  2.4704606 *  1.5114064 *
   3 C       2.4570258 *  2.8300452 *  0.0000000    1.4017828 *  2.4954070 *
   4 C       1.5068066 *  2.4704606 *  1.4017828 *  0.0000000    2.8918954 *
   5 C       2.4643268 *  1.5114064 *  2.4954070 *  2.8918954 *  0.0000000  
   6 O       3.5797516    2.4089886 *  3.5991678    4.1150840    1.2238172 *
   7 C       2.8331828 *  2.5581990 *  1.4007296 *  2.3874529 *  1.5349831 *
   8 C       3.5524040    3.4067988    2.7244757 *  3.1051765    2.6904429 *
   9 C       3.5386265    3.8893047    2.7512657 *  2.7395370 *  3.6099142  
  10 C       2.6952377 *  3.4338987    2.7212980 *  2.0000000 *  3.7143018  
  11 H       1.0845688 *  2.0959637 *  3.4067112    2.2199033 *  3.4652142  
  12 H       2.1039713 *  1.0820822 *  3.9000996    3.4717311    2.2202699 *
  13 H       3.4409691    3.9075026    1.0831607 *  2.1478629 *  3.4720677  
  14 H       2.1918320 *  3.3678327    2.1380619 *  1.0856616 *  3.9365690  
  15 H       3.8898497    3.4958853    2.1364886 *  3.3678303    2.2021149 *
  16 H       3.3596567    2.9520566 *  3.2605123    3.3900620    2.3840535 *
  17 H       4.5557732    4.2852235    3.3659884    4.0295711    3.2818870  
  18 H       4.3784630    4.8153337    3.0959819    3.3002417    4.4142377  
  19 H       2.3798043 *  3.0160264    3.2815678    2.3524359 *  3.5982191  
  20 H       3.3574010    4.3176973    3.3370755    2.4900048 *  4.7147881  

                6 O          7 C          8 C          9 C         10 C     

   1 C       3.5797516    2.8331828 *  3.5524040    3.5386265    2.6952377 *
   2 C       2.4089886 *  2.5581990 *  3.4067988    3.8893047    3.4338987  
   3 C       3.5991678    1.4007296 *  2.7244757 *  2.7512657 *  2.7212980 *
   4 C       4.1150840    2.3874529 *  3.1051765    2.7395370 *  2.0000000 *
   5 C       1.2238172 *  1.5349831 *  2.6904429 *  3.6099142    3.7143018  
   6 O       0.0000000    2.4251357 *  3.3546389    4.5186790    4.8018889  
   7 C       2.4251357 *  0.0000000    2.0000000 *  2.7394336 *  3.1462030  
   8 C       3.3546389    2.0000000 *  0.0000000    1.4001956 *  2.4197004 *
   9 C       4.5186790    2.7394336 *  1.4001956 *  0.0000000    1.3990995 *
  10 C       4.8018889    3.1462030    2.4197004 *  1.3990995 *  0.0000000  
  11 H       4.4952486    3.9137266    4.4705803    4.2711565    3.1705114  
  12 H       2.6684326 *  3.5366954    4.2619714    4.8147131    4.3106236  
  13 H       4.4769767    2.1474618 *  3.2748560    3.0991331    3.2338968  
  14 H       5.1552395    3.3684055    4.0361068    3.3916921    2.4517336 *
  15 H       2.6380144 *  1.0861889 *  2.4714283 *  3.3670301    4.0504469  
  16 H       2.8877975 *  2.3795866 *  1.0835842 *  2.1287142 *  2.7328222 *
  17 H       3.6646358    2.4677559 *  1.0847458 *  2.1366008 *  3.3887476  
  18 H       5.3007628    3.2625969    2.1251780 *  1.0838622 *  2.1252468 *
  19 H       4.6141270    3.4907698    2.7467321 *  2.1305683 *  1.0830900 *
  20 H       5.8421011    4.0425309    3.3855774    2.1323434 *  1.0850462 *

               11 H         12 H         13 H         14 H         15 H     

   1 C       1.0845688 *  2.1039713 *  3.4409691    2.1918320 *  3.8898497  
   2 C       2.0959637 *  1.0820822 *  3.9075026    3.3678327    3.4958853  
   3 C       3.4067112    3.9000996    1.0831607 *  2.1380619 *  2.1364886 *
   4 C       2.2199033 *  3.4717311    2.1478629 *  1.0856616 *  3.3678303  
   5 C       3.4652142    2.2202699 *  3.4720677    3.9365690    2.2021149 *
   6 O       4.4952486    2.6684326 *  4.4769767    5.1552395    2.6380144 *
   7 C       3.9137266    3.5366954    2.1474618 *  3.3684055    1.0861889 *
   8 C       4.4705803    4.2619714    3.2748560    4.0361068    2.4714283 *
   9 C       4.2711565    4.8147131    3.0991331    3.3916921    3.3670301  
  10 C       3.1705114    4.3106236    3.2338968    2.4517336 *  4.0504469  
  11 H       0.0000000    2.4561252 *  4.2938299    2.4708731 *  4.9711658  
  12 H       2.4561252 *  0.0000000    4.9716371    4.2726365    4.3824667  
  13 H       4.2938299    4.9716371    0.0000000    2.4681108 *  2.4615167 *
  14 H       2.4708731 *  4.2726365    2.4681108 *  0.0000000    4.2578093  
  15 H       4.9711658    4.3824667    2.4615167 *  4.2578093    0.0000000  
  16 H       4.2065066    3.6059533    4.0344797    4.3961239    2.9730576 *
  17 H       5.5163494    5.1017590    3.6983797    4.9296907    2.4604683 *
  18 H       5.1027205    5.7952993    3.0611656    3.7437703    3.6555587  
  19 H       2.6693375 *  3.6951979    4.0177581    2.8914659 *  4.4863058  
  20 H       3.5937697    5.1719161    3.6048272    2.4655489 *  4.8998581  

               16 H         17 H         18 H         19 H         20 H     

   1 C       3.3596567    4.5557732    4.3784630    2.3798043 *  3.3574010  
   2 C       2.9520566 *  4.2852235    4.8153337    3.0160264    4.3176973  
   3 C       3.2605123    3.3659884    3.0959819    3.2815678    3.3370755  
   4 C       3.3900620    4.0295711    3.3002417    2.3524359 *  2.4900048 *
   5 C       2.3840535 *  3.2818870    4.4142377    3.5982191    4.7147881  
   6 O       2.8877975 *  3.6646358    5.3007628    4.6141270    5.8421011  
   7 C       2.3795866 *  2.4677559 *  3.2625969    3.4907698    4.0425309  
   8 C       1.0835842 *  1.0847458 *  2.1251780 *  2.7467321 *  3.3855774  
   9 C       2.1287142 *  2.1366008 *  1.0838622 *  2.1305683 *  2.1323434 *
  10 C       2.7328222 *  3.3887476    2.1252468 *  1.0830900 *  1.0850462 *
  11 H       4.2065066    5.5163494    5.1027205    2.6693375 *  3.5937697  
  12 H       3.6059533    5.1017590    5.7952993    3.6951979    5.1719161  
  13 H       4.0344797    3.6983797    3.0611656    4.0177581    3.6048272  
  14 H       4.3961239    4.9296907    3.7437703    2.8914659 *  2.4655489 *
  15 H       2.9730576 *  2.4604683 *  3.6555587    4.4863058    4.8998581  
  16 H       0.0000000    1.8041138 *  3.0587078    2.6173248 *  3.7896674  
  17 H       1.8041138 *  0.0000000    2.4336336 *  3.7977236    4.2551540  
  18 H       3.0587078    2.4336336 *  0.0000000    3.0574672    2.4240640 *
  19 H       2.6173248 *  3.7977236    3.0574672    0.0000000    1.8050859 *
  20 H       3.7896674    4.2551540    2.4240640 *  1.8050859 *  0.0000000  

  * ... LESS THAN  3.000


     ATOMIC BASIS SET
     ----------------
 THE CONTRACTED PRIMITIVE FUNCTIONS HAVE BEEN UNNORMALIZED
 THE CONTRACTED BASIS FUNCTIONS ARE NOW NORMALIZED TO UNITY

  SHELL TYPE  PRIMITIVE        EXPONENT          CONTRACTION COEFFICIENT(S)

 C         

      1   S       1            71.6168373    0.154328967295
      1   S       2            13.0450963    0.535328142282
      1   S       3             3.5305122    0.444634542185

      2   L       4             2.9412494   -0.099967229187    0.155916274999
      2   L       5             0.6834831    0.399512826089    0.607683718598
      2   L       6             0.2222899    0.700115468880    0.391957393099

 C         

      3   S       7            71.6168373    0.154328967295
      3   S       8            13.0450963    0.535328142282
      3   S       9             3.5305122    0.444634542185

      4   L      10             2.9412494   -0.099967229187    0.155916274999
      4   L      11             0.6834831    0.399512826089    0.607683718598
      4   L      12             0.2222899    0.700115468880    0.391957393099

 C         

      5   S      13            71.6168373    0.154328967295
      5   S      14            13.0450963    0.535328142282
      5   S      15             3.5305122    0.444634542185

      6   L      16             2.9412494   -0.099967229187    0.155916274999
      6   L      17             0.6834831    0.399512826089    0.607683718598
      6   L      18             0.2222899    0.700115468880    0.391957393099

 C         

      7   S      19            71.6168373    0.154328967295
      7   S      20            13.0450963    0.535328142282
      7   S      21             3.5305122    0.444634542185

      8   L      22             2.9412494   -0.099967229187    0.155916274999
      8   L      23             0.6834831    0.399512826089    0.607683718598
      8   L      24             0.2222899    0.700115468880    0.391957393099

 C         

      9   S      25            71.6168373    0.154328967295
      9   S      26            13.0450963    0.535328142282
      9   S      27             3.5305122    0.444634542185

     10   L      28             2.9412494   -0.099967229187    0.155916274999
     10   L      29             0.6834831    0.399512826089    0.607683718598
     10   L      30             0.2222899    0.700115468880    0.391957393099

 O         

     11   S      31           130.7093214    0.154328967295
     11   S      32            23.8088661    0.535328142282
     11   S      33             6.4436083    0.444634542185

     12   L      34             5.0331513   -0.099967229187    0.155916274999
     12   L      35             1.1695961    0.399512826089    0.607683718598
     12   L      36             0.3803890    0.700115468880    0.391957393099

 C         

     13   S      37            71.6168373    0.154328967295
     13   S      38            13.0450963    0.535328142282
     13   S      39             3.5305122    0.444634542185

     14   L      40             2.9412494   -0.099967229187    0.155916274999
     14   L      41             0.6834831    0.399512826089    0.607683718598
     14   L      42             0.2222899    0.700115468880    0.391957393099

 C         

     15   S      43            71.6168373    0.154328967295
     15   S      44            13.0450963    0.535328142282
     15   S      45             3.5305122    0.444634542185

     16   L      46             2.9412494   -0.099967229187    0.155916274999
     16   L      47             0.6834831    0.399512826089    0.607683718598
     16   L      48             0.2222899    0.700115468880    0.391957393099

 C         

     17   S      49            71.6168373    0.154328967295
     17   S      50            13.0450963    0.535328142282
     17   S      51             3.5305122    0.444634542185

     18   L      52             2.9412494   -0.099967229187    0.155916274999
     18   L      53             0.6834831    0.399512826089    0.607683718598
     18   L      54             0.2222899    0.700115468880    0.391957393099

 C         

     19   S      55            71.6168373    0.154328967295
     19   S      56            13.0450963    0.535328142282
     19   S      57             3.5305122    0.444634542185

     20   L      58             2.9412494   -0.099967229187    0.155916274999
     20   L      59             0.6834831    0.399512826089    0.607683718598
     20   L      60             0.2222899    0.700115468880    0.391957393099

 H         

     21   S      61             3.4252509    0.154328967295
     21   S      62             0.6239137    0.535328142282
     21   S      63             0.1688554    0.444634542185

 H         

     22   S      64             3.4252509    0.154328967295
     22   S      65             0.6239137    0.535328142282
     22   S      66             0.1688554    0.444634542185

 H         

     23   S      67             3.4252509    0.154328967295
     23   S      68             0.6239137    0.535328142282
     23   S      69             0.1688554    0.444634542185

 H         

     24   S      70             3.4252509    0.154328967295
     24   S      71             0.6239137    0.535328142282
     24   S      72             0.1688554    0.444634542185

 H         

     25   S      73             3.4252509    0.154328967295
     25   S      74             0.6239137    0.535328142282
     25   S      75             0.1688554    0.444634542185

 H         

     26   S      76             3.4252509    0.154328967295
     26   S      77             0.6239137    0.535328142282
     26   S      78             0.1688554    0.444634542185

 H         

     27   S      79             3.4252509    0.154328967295
     27   S      80             0.6239137    0.535328142282
     27   S      81             0.1688554    0.444634542185

 H         

     28   S      82             3.4252509    0.154328967295
     28   S      83             0.6239137    0.535328142282
     28   S      84             0.1688554    0.444634542185

 H         

     29   S      85             3.4252509    0.154328967295
     29   S      86             0.6239137    0.535328142282
     29   S      87             0.1688554    0.444634542185

 H         

     30   S      88             3.4252509    0.154328967295
     30   S      89             0.6239137    0.535328142282
     30   S      90             0.1688554    0.444634542185

 TOTAL NUMBER OF BASIS SET SHELLS             =   30
 NUMBER OF CARTESIAN GAUSSIAN BASIS FUNCTIONS =   60
 NUMBER OF ELECTRONS                          =   72
 CHARGE OF MOLECULE                           =    0
 SPIN MULTIPLICITY                            =    1
 NUMBER OF OCCUPIED ORBITALS (ALPHA)          =   36
 NUMBER OF OCCUPIED ORBITALS (BETA )          =   36
 TOTAL NUMBER OF ATOMS                        =   20
 THE NUCLEAR REPULSION ENERGY IS      509.6664159277

     $CONTRL OPTIONS
     ---------------
 SCFTYP=RHF          RUNTYP=SADPOINT     EXETYP=RUN     
 MPLEVL=       0     CITYP =NONE         CCTYP =NONE         VBTYP =NONE    
 DFTTYP=NONE         TDDFT =NONE    
 MULT  =       1     ICHARG=       0     NZVAR =       1     COORD =UNIQUE  
 PP    =NONE         RELWFN=NONE         LOCAL =NONE         NUMGRD=       F
 ISPHER=      -1     NOSYM =       0     MAXIT =      30     UNITS =ANGS    
 PLTORB=       F     MOLPLT=       F     AIMPAC=       F     FRIEND=        
 NPRINT=       7     IREST =       0     GEOM  =INPUT   
 NORMF =       0     NORMP =       0     ITOL  =      20     ICUT  =       9
 INTTYP=BEST         GRDTYP=BEST         QMTTOL= 1.0E-06

     $SYSTEM OPTIONS
     ---------------
  REPLICATED MEMORY=     1000000 WORDS (ON EVERY NODE).
 DISTRIBUTED MEMDDI=           0 MILLION WORDS IN AGGREGATE,
 MEMDDI DISTRIBUTED OVER   1 PROCESSORS IS           0 WORDS/PROCESSOR.
 TOTAL MEMORY REQUESTED ON EACH PROCESSOR=     1000000 WORDS.
 TIMLIM=      525600.00 MINUTES, OR     365.0 DAYS.
 PARALL= F  BALTYP=  DLB     KDIAG=    0  COREFL= F
 MXSEQ2=     300 MXSEQ3=     150  mem10=         0

          ----------------
          PROPERTIES INPUT
          ----------------

     MOMENTS            FIELD           POTENTIAL          DENSITY
 IEMOM =       1   IEFLD =       0   IEPOT =       0   IEDEN =       0
 WHERE =COMASS     WHERE =NUCLEI     WHERE =NUCLEI     WHERE =NUCLEI  
 OUTPUT=BOTH       OUTPUT=BOTH       OUTPUT=BOTH       OUTPUT=BOTH    
 IEMINT=       0   IEFINT=       0                     IEDINT=       0
                                                       MORB  =       0
          EXTRAPOLATION IN EFFECT
          SOSCF IN EFFECT
 ORBITAL PRINTING OPTION: NPREO=     1    60     2     1

     -------------------------------
     INTEGRAL TRANSFORMATION OPTIONS
     -------------------------------
     NWORD  =            0
     CUTOFF = 1.0E-09     MPTRAN =       0
     DIRTRF =       F     AOINTS =DUP     

          ----------------------
          INTEGRAL INPUT OPTIONS
          ----------------------
 NOPK  =       1 NORDER=       0 SCHWRZ=       T


 -----------------------------------------------
  STATISTICS ON AUTOMATIC COORDINATE GENERATION 
 -----------------------------------------------
  NUMBER OF USER SPECIFIED BONDS                             6
  NUMBER OF BONDS                                           25
  NUMBER OF ANGLES                                          61
  NUMBER OF TORSIONS                                        62
  NUMBER OF EXTRA COORD.                                     0
  NUMBER OF EXTRA COORD. FOR CONSTRAINTS                     0
  NUMBER OF CONSTRAINED COORD.                               0

  TOTAL NUMBER OF PRIMITIVES                               148
 -----------------------------------------------

   --- ENCODED Z MATRIX ---
 COORD  TYPE   I   J   K   L   M   N
    1      1    1   2
    2      1    1   4
    3      1    1  11
    4      1    2   5
    5      1    2  12
    6      1    3   4
    7      1    3   4
    8      1    3  13
    9      1    3   7
   10      1    3   7
   11      1    4  14
   12      1    4  10
   13      1    5   7
   14      1    5   6
   15      1    7  15
   16      1    7   8
   17      1    8  16
   18      1    8   9
   19      1    8   9
   20      1    8  17
   21      1    9  10
   22      1    9  10
   23      1    9  18
   24      1   10  20
   25      1   10  19
   26      2    1   4  10
   27      2    1   2  12
   28      2    1   4   3
   29      2    1   4  14
   30      2    1   2   5
   31      2    1   4   3
   32      2    2   1  11
   33      2    2   1   4
   34      2    2   5   6
   35      2    2   5   7
   36      2    3   7   8
   37      2    3   7  15
   38      2    3   7   5
   39      2    3   4  10
   40      2    3   7   5
   41      2    3   4  14
   42      2    3   4  10
   43      2    3   7   8
   44      2    3   7  15
   45      2    3   4  14
   46      2    4   3   7
   47      2    4   3  13
   48      2    4   3   7
   49      2    4   1  11
   50      2    4   3   7
   51      2    4   3   7
   52      2    4   3  13
   53      2    4  10  20
   54      2    4  10   9
   55      2    4  10   9
   56      2    4  10  19
   57      2    5   2  12
   58      2    5   7   8
   59      2    5   7  15
   60      2    6   5   7
   61      2    7   3  13
   62      2    7   3  13
   63      2    7   8  17
   64      2    7   8   9
   65      2    7   8   9
   66      2    7   8  16
   67      2    8   9  18
   68      2    8   9  10
   69      2    8   9  10
   70      2    8   9  18
   71      2    8   9  10
   72      2    8   9  10
   73      2    8   7  15
   74      2    9  10  19
   75      2    9  10  20
   76      2    9  10  19
   77      2    9  10  20
   78      2    9   8  17
   79      2    9   8  17
   80      2    9   8  16
   81      2    9   8  16
   82      2   10   4  14
   83      2   10   9  18
   84      2   10   9  18
   85      2   16   8  17
   86      2   19  10  20
   87      3    1   4  10   9
   88      3    1   4   3   7
   89      3    1   4  10  19
   90      3    1   4  10  20
   91      3    1   4   3  13
   92      3    1   2   5   6
   93      3    1   2   5   7
   94      3    2   1   4  10
   95      3    2   1   4  14
   96      3    2   5   7   8
   97      3    2   5   7  15
   98      3    2   5   7   3
   99      3    2   1   4   3
  100      3    3   4  10  19
  101      3    3   4  10  20
  102      3    3   4  10   9
  103      3    3   7   5   6
  104      3    3   7   8  17
  105      3    3   7   8   9
  106      3    3   7   8  16
  107      3    3   4   1  11
  108      3    4   1   2  12
  109      3    4   3   7   5
  110      3    4   3   7  15
  111      3    4   3   7   8
  112      3    4  10   9  18
  113      3    4  10   9   8
  114      3    4   1   2   5
  115      3    5   7   3  13
  116      3    5   7   8  17
  117      3    5   7   8   9
  118      3    5   7   8  16
  119      3    5   2   1  11
  120      3    6   5   7  15
  121      3    6   5   7   8
  122      3    6   5   2  12
  123      3    7   3   4  10
  124      3    7   8   9  18
  125      3    7   8   9  10
  126      3    7   5   2  12
  127      3    7   3   4  14
  128      3    8   9  10  19
  129      3    8   9  10  20
  130      3    8   7   3  13
  131      3    9   8   7  15
  132      3    9  10   4  14
  133      3   10   4   3  13
  134      3   10   9   8  17
  135      3   10   9   8  16
  136      3   10   4   1  11
  137      3   11   1   4  14
  138      3   11   1   2  12
  139      3   13   3   7  15
  140      3   13   3   4  14
  141      3   14   4  10  19
  142      3   14   4  10  20
  143      3   15   7   8  16
  144      3   15   7   8  17
  145      3   16   8   9  18
  146      3   17   8   9  18
  147      3   18   9  10  20
  148      3   18   9  10  19

          INDEP./SYM. INTERNAL COORDINATES
          --------------------------------
 CRD  1=  -0.1328 (  2) -0.1233 ( 12) -0.1189 ( 13) -0.1274 ( 16) -0.4118 ( 26)
           0.1237 ( 36)  0.1364 ( 39)  0.1364 ( 42)  0.1237 ( 43) -0.1042 ( 56)
          -0.4038 ( 58) -0.1117 ( 66)  0.1247 ( 73)  0.1209 ( 82) -0.1632 ( 88)
          -0.1700 ( 91) -0.1000 (103)  0.1028 (108)  0.1561 (109) -0.2140 (111)
           0.1632 (115)  0.2107 (123) -0.2068 (130)  0.2039 (133)
 CRD  2=  -0.2096 (  1) -0.3371 (  2)  0.1274 (  4)  0.3500 ( 13) -0.1979 ( 27)
           0.1381 ( 33) -0.1447 ( 34) -0.1238 ( 35) -0.1876 ( 49)  0.1883 ( 57)
           0.1031 ( 59)  0.2685 ( 60) -0.1888 ( 87) -0.1281 ( 89) -0.1371 ( 90)
          -0.1035 (101) -0.1552 (102) -0.1585 (105) -0.1483 (116) -0.2095 (117)
          -0.1390 (118)
 CRD  3=   0.1169 (  3)  0.2103 (  4) -0.1039 ( 13) -0.1102 ( 14)  0.1057 ( 20)
          -0.1092 ( 24)  0.1298 ( 28) -0.1114 ( 29)  0.1298 ( 31)  0.1081 ( 34)
           0.1037 ( 35)  0.1919 ( 36) -0.1080 ( 38) -0.1959 ( 39) -0.1080 ( 40)
          -0.1959 ( 42)  0.1919 ( 43) -0.1851 ( 53)  0.1818 ( 54)  0.1818 ( 55)
           0.1315 ( 57)  0.1032 ( 59) -0.2117 ( 60)  0.1497 ( 63) -0.2234 ( 64)
          -0.2234 ( 65) -0.1654 ( 73)  0.1549 ( 82) -0.1614 ( 94) -0.1790 ( 96)
          -0.1678 (121) -0.1599 (136)
 CRD  4=   0.4699 ( 12) -0.3960 ( 16)  0.2085 ( 53) -0.1073 ( 54) -0.1073 ( 55)
          -0.1789 ( 63)  0.1349 ( 64)  0.1349 ( 65) -0.1153 ( 66) -0.1185 ( 73)
           0.1273 ( 82)  0.1034 ( 93) -0.1871 ( 94) -0.1990 ( 96) -0.1596 ( 98)
          -0.1493 ( 99) -0.1250 (103) -0.1233 (107) -0.1645 (121) -0.1611 (136)
 CRD  5=  -0.1433 (  1)  0.2937 (  2) -0.2315 (  4)  0.1519 ( 12)  0.2204 ( 13)
           0.2220 ( 16) -0.2384 ( 32) -0.3715 ( 34)  0.2606 ( 49)  0.1511 ( 54)
           0.1511 ( 55) -0.1722 ( 56)  0.2842 ( 60)  0.1573 ( 63) -0.1149 ( 66)
          -0.1330 (112) -0.1045 (113)  0.1670 (124)  0.1271 (125)
 CRD  6=   0.2052 (  1)  0.3255 (  4)  0.1915 (  5)  0.3168 ( 12)  0.3971 ( 16)
          -0.1537 ( 30)  0.2452 ( 34) -0.1433 ( 49)  0.1372 ( 53) -0.1114 ( 56)
           0.1786 ( 57) -0.2676 ( 60)  0.1442 ( 63) -0.1089 ( 66) -0.1499 (112)
          -0.1258 (113)  0.1547 (124)  0.1371 (125)
 CRD  7=   0.2149 (  1)  0.3710 (  2)  0.2448 (  4)  0.2732 (  5) -0.3390 ( 12)
           0.3565 ( 13)  0.1014 ( 14) -0.3171 ( 16) -0.1578 ( 30) -0.1286 ( 56)
           0.1168 ( 57) -0.1277 ( 66) -0.1039 ( 91) -0.1079 (133)
 CRD  8=   0.4290 (  1) -0.1242 (  4)  0.4093 ( 27)  0.3994 ( 32) -0.1920 ( 34)
          -0.3375 ( 49) -0.3938 ( 57)  0.1760 ( 60)
 CRD  9=   0.1675 (  3)  0.1502 (  4) -0.1922 (  5)  0.1055 ( 11)  0.2129 ( 14)
           0.1005 ( 15)  0.1790 ( 18)  0.1790 ( 19)  0.1542 ( 20)  0.1757 ( 21)
           0.1757 ( 22)  0.1701 ( 24) -0.2013 ( 27)  0.2803 ( 30) -0.1696 ( 33)
          -0.1932 ( 35)  0.1190 ( 46)  0.1190 ( 48)  0.2210 ( 49)  0.1190 ( 50)
           0.1190 ( 51)  0.1511 ( 60)  0.1580 ( 68)  0.1580 ( 69)  0.1580 ( 71)
           0.1580 ( 72)  0.1141 ( 89)
 CRD 10=   0.2118 (  2)  0.2504 (  3)  0.1470 (  6)  0.1470 (  7) -0.1447 (  9)
          -0.1447 ( 10) -0.2667 ( 13) -0.2603 ( 14) -0.1129 ( 17)  0.1005 ( 20)
           0.1224 ( 25)  0.1097 ( 27) -0.1884 ( 33)  0.1633 ( 35)  0.1696 ( 47)
           0.1758 ( 49)  0.1696 ( 52) -0.1350 ( 57) -0.1332 ( 60) -0.1799 ( 61)
          -0.1799 ( 62)  0.1103 ( 74)  0.1103 ( 76) -0.1735 ( 87) -0.1440 (102)
          -0.1459 (105) -0.1839 (117) -0.1356 (131) -0.1329 (132)
 CRD 11=   0.1883 (  2)  0.1990 (  5)  0.2971 (  8)  0.1736 ( 12)  0.1596 ( 13)
           0.1058 ( 15)  0.1835 ( 16)  0.1244 ( 17)  0.1289 ( 25) -0.1059 ( 26)
          -0.1440 ( 30) -0.1187 ( 54) -0.1187 ( 55)  0.3030 ( 56) -0.1031 ( 58)
          -0.1191 ( 64) -0.1191 ( 65)  0.3047 ( 66)  0.1942 (112)  0.1842 (113)
          -0.1914 (124) -0.1805 (125)
 CRD 12=  -0.1165 (  1) -0.2715 (  3) -0.1168 (  4)  0.1407 (  5) -0.1479 (  6)
          -0.1479 (  7) -0.1379 (  8) -0.1616 (  9) -0.1616 ( 10) -0.1821 ( 11)
          -0.2867 ( 14) -0.1018 ( 15)  0.2008 ( 18)  0.2008 ( 19)  0.1861 ( 20)
           0.1918 ( 21)  0.1918 ( 22)  0.2310 ( 24) -0.1958 ( 30)  0.1301 ( 33)
           0.1396 ( 35)  0.1064 ( 57) -0.1076 (118)
 CRD 13=   0.2062 (  3)  0.1261 (  4) -0.3097 ( 11)  0.1001 ( 12) -0.1068 ( 14)
           0.3379 ( 15) -0.1564 ( 20)  0.1544 ( 28) -0.1405 ( 29)  0.1544 ( 31)
           0.1760 ( 32) -0.1340 ( 33) -0.1469 ( 34) -0.1432 ( 38) -0.1432 ( 40)
           0.1298 ( 59)  0.1076 ( 94)  0.1461 ( 96)  0.1137 (102)  0.1303 (105)
           0.1084 (121) -0.1338 (128)  0.1026 (131) -0.1278 (135) -0.1062 (145)
          -0.1172 (148)
 CRD 14=  -0.2036 (  6) -0.2036 (  7) -0.2033 (  8) -0.1904 (  9) -0.1904 ( 10)
          -0.1164 ( 11) -0.1953 ( 15) -0.1995 ( 18) -0.1995 ( 19) -0.1414 ( 20)
          -0.2079 ( 21) -0.2079 ( 22) -0.3164 ( 23) -0.1614 ( 24)  0.1117 ( 29)
          -0.1224 ( 37) -0.1180 ( 41) -0.1224 ( 44) -0.1180 ( 45)  0.1159 ( 53)
           0.1008 ( 63) -0.1458 ( 75) -0.1458 ( 77) -0.1266 ( 78) -0.1266 ( 79)
           0.1287 ( 90)  0.1221 (101) -0.1376 (104) -0.1079 (116) -0.1138 (132)
 CRD 15=  -0.2937 ( 17) -0.2266 ( 18) -0.2266 ( 19)  0.2145 ( 21)  0.2145 ( 22)
           0.2868 ( 25) -0.1326 ( 53)  0.1381 ( 63) -0.1007 ( 66) -0.2915 ( 67)
          -0.2915 ( 70)  0.1186 ( 75)  0.1186 ( 77) -0.1249 ( 78) -0.1249 ( 79)
           0.2839 ( 83)  0.2839 ( 84) -0.1286 (129) -0.1280 (134)
 CRD 16=  -0.1069 (  3)  0.1171 (  9)  0.1171 ( 10) -0.1732 ( 12) -0.2054 ( 14)
           0.3908 ( 15) -0.3050 ( 23) -0.1013 ( 25) -0.1442 ( 82)  0.1325 ( 88)
           0.1250 ( 91)  0.1677 ( 92)  0.2002 ( 93) -0.1300 ( 95) -0.1264 ( 97)
          -0.1890 ( 98) -0.1122 ( 99) -0.1567 (103) -0.1021 (111)  0.1351 (122)
           0.1676 (126)  0.1481 (127) -0.1104 (137)  0.1406 (140)
 CRD 17=   0.1520 (  3) -0.1522 (  6) -0.1522 (  7) -0.4301 ( 11)  0.1174 ( 21)
           0.1174 ( 22)  0.1398 ( 23)  0.1787 ( 25) -0.1199 ( 41) -0.1199 ( 45)
          -0.1605 ( 47) -0.1605 ( 52) -0.1368 ( 56)  0.1802 ( 61)  0.1802 ( 62)
          -0.1330 ( 63)  0.1685 ( 66)  0.1387 ( 74)  0.1387 ( 76) -0.1244 ( 80)
          -0.1244 ( 81)  0.1136 (100)  0.1204 (128)  0.1064 (134)  0.1670 (135)
           0.1666 (145)  0.1060 (146)  0.1456 (148)
 CRD 18=  -0.1723 (  3) -0.1609 (  8)  0.3279 ( 11) -0.1039 ( 14)  0.2153 ( 15)
          -0.1354 ( 16) -0.1785 ( 17) -0.1238 ( 18) -0.1238 ( 19) -0.1351 ( 23)
           0.1641 ( 53) -0.1441 ( 56)  0.1188 ( 66) -0.1105 ( 80) -0.1105 ( 81)
          -0.1039 ( 93)  0.1204 ( 95)  0.1165 ( 96)  0.1783 ( 97)  0.1275 ( 98)
           0.1427 ( 99)  0.1227 (107)  0.1372 (120) -0.1031 (126)  0.1566 (128)
           0.1634 (129)  0.1004 (137)  0.1330 (145)  0.1596 (147)  0.1528 (148)
 CRD 19=  -0.4428 (  8)  0.2552 ( 11)  0.3553 ( 15)  0.1291 ( 17) -0.1288 ( 20)
           0.3688 ( 23) -0.2107 ( 24)  0.1228 ( 25)  0.1009 ( 46)  0.1009 ( 48)
           0.1009 ( 50)  0.1009 ( 51)  0.1136 (108)  0.1290 (114)  0.1180 (115)
           0.1088 (119) -0.1078 (132)
 CRD 20=   0.1230 (  6)  0.1230 (  7) -0.1470 (  9) -0.1470 ( 10)  0.2956 ( 17)
          -0.2626 ( 20)  0.1221 ( 23)  0.1595 ( 24) -0.1264 ( 25) -0.1289 ( 37)
          -0.1289 ( 44)  0.1709 ( 47)  0.1709 ( 52) -0.1823 ( 56)  0.1060 ( 59)
          -0.1801 ( 61) -0.1801 ( 62)  0.1901 ( 66) -0.1088 ( 97)  0.1787 (128)
           0.1630 (131)  0.1022 (132)  0.1272 (134)  0.1976 (135)  0.2060 (145)
           0.1355 (146)  0.1008 (147)  0.2004 (148)
 CRD 21=   0.1951 ( 17)  0.2731 ( 23) -0.1879 ( 24)  0.3494 ( 25) -0.1147 ( 73)
           0.1115 ( 88)  0.1319 ( 92)  0.1299 ( 93)  0.1410 ( 94)  0.1019 ( 95)
          -0.1922 (108) -0.1731 (109) -0.2085 (110) -0.1294 (111) -0.2118 (114)
          -0.1178 (115) -0.1858 (119)  0.1134 (122)  0.1477 (123)  0.1113 (126)
           0.1626 (127)  0.1148 (133)  0.1159 (136) -0.1662 (138) -0.1532 (139)
           0.1297 (140)
 CRD 22=   0.2001 (  8)  0.1919 ( 17)  0.3207 ( 23)  0.1874 ( 25)  0.2622 ( 53)
           0.2610 ( 63) -0.1324 ( 75) -0.1324 ( 77) -0.1356 ( 78) -0.1356 ( 79)
           0.1889 (128)  0.3090 (129) -0.3080 (134) -0.1768 (135) -0.2189 (146)
           0.2206 (147)  0.1005 (148)
 CRD 23=   0.3044 ( 17)  0.5442 ( 20) -0.4869 ( 24) -0.2616 ( 25)  0.1041 ( 74)
           0.1041 ( 76) -0.1162 ( 80) -0.1162 ( 81)  0.1763 ( 85) -0.1559 ( 86)
           0.1127 ( 89)  0.1172 (100)  0.1330 (106)  0.1285 (118)  0.1243 (141)
           0.1401 (143)
 CRD 24=  -0.2355 (  8)  0.2785 ( 17)  0.4297 ( 20) -0.1295 ( 23)  0.4826 ( 24)
           0.3312 ( 25) -0.1262 ( 74) -0.1262 ( 76) -0.1134 ( 80) -0.1134 ( 81)
           0.1459 ( 85)  0.1687 ( 86) -0.1516 ( 89) -0.1504 (100)  0.1382 (106)
           0.1391 (118) -0.1613 (141)  0.1475 (143)
 CRD 25=   0.1562 (  3) -0.1015 (  6) -0.1015 (  7)  0.1133 (  9)  0.1133 ( 10)
          -0.1733 ( 14)  0.3865 ( 17) -0.1413 ( 20)  0.1350 ( 24) -0.3181 ( 25)
           0.1331 ( 75)  0.1331 ( 77) -0.1500 ( 78) -0.1500 ( 79) -0.1542 ( 90)
          -0.1113 (100) -0.1668 (101) -0.1959 (104) -0.1207 (106) -0.1833 (116)
          -0.1081 (118) -0.1443 (141) -0.1998 (142) -0.1549 (143) -0.2301 (144)
 CRD 26=  -0.1461 (  3)  0.3402 (  8) -0.1036 ( 14)  0.2761 ( 17) -0.1561 ( 23)
           0.3226 ( 25) -0.1061 ( 63)  0.1121 ( 85)  0.1245 ( 86)  0.1632 ( 90)
           0.1624 (101) -0.1319 (104) -0.1070 (113) -0.1326 (116)  0.1006 (125)
          -0.2315 (129)  0.2251 (134)  0.1020 (141)  0.1877 (142) -0.1482 (144)
           0.1644 (146) -0.1736 (147)
 CRD 27=   0.1005 (  8)  0.1412 ( 11)  0.1706 ( 73)  0.1809 ( 82) -0.1387 ( 88)
           0.1364 ( 93)  0.1002 ( 94)  0.2700 ( 95) -0.2216 ( 97) -0.1178 ( 98)
           0.1565 ( 99)  0.1000 (107) -0.2993 (108)  0.1291 (109)  0.2280 (110)
          -0.1583 (114) -0.1610 (120)  0.2093 (122)  0.2703 (126) -0.2423 (127)
           0.2135 (137) -0.2403 (138)  0.1944 (139) -0.2033 (140)
 CRD 28=   0.1205 (  1)  0.4031 (  3)  0.3182 (  5)  0.1494 ( 11) -0.1922 ( 13)
          -0.2624 ( 14) -0.3428 ( 15) -0.3075 ( 27) -0.2664 ( 34)  0.2972 ( 57)
           0.2716 ( 60)
 CRD 29=  -0.2115 (  2) -0.1181 (  3)  0.1200 (  4)  0.5881 (  5) -0.1026 (  8)
          -0.2652 ( 11) -0.1828 ( 13)  0.3210 ( 14)  0.1439 ( 27) -0.2475 ( 32)
           0.2734 ( 49) -0.1740 ( 57)  0.1043 ( 82)
 CRD 30=   0.1269 (  8)  0.1540 ( 11) -0.1698 ( 12)  0.1095 ( 15) -0.1697 ( 16)
           0.1143 ( 73)  0.2099 ( 91) -0.2630 ( 92) -0.1184 ( 97)  0.2607 (103)
          -0.2730 (107) -0.1986 (108) -0.1948 (115)  0.2685 (119)  0.1055 (120)
           0.2308 (121)  0.2023 (126) -0.1920 (130)  0.1877 (133) -0.2313 (136)
          -0.1237 (137) -0.1059 (145)  0.1056 (148)
 CRD 31=  -0.3201 (  1)  0.2300 (  2) -0.3001 (  3)  0.3640 (  4)  0.2348 ( 11)
          -0.2398 ( 13)  0.3093 ( 14) -0.2605 ( 15)  0.2170 ( 32) -0.1003 ( 33)
          -0.2272 ( 34)  0.1215 ( 35) -0.1167 ( 49)  0.1056 ( 60)
 CRD 32=  -0.1674 (  2) -0.1870 (  3)  0.1036 (  4)  0.1955 (  5)  0.3714 (  8)
          -0.1784 ( 13) -0.1725 ( 14) -0.2532 ( 17)  0.1915 ( 20)  0.4048 ( 23)
           0.1979 ( 24) -0.2547 ( 25)  0.1047 ( 30)  0.1002 (127)  0.1058 (131)
          -0.1093 (132) -0.1290 (141)  0.1280 (143)
 CRD 33=   0.1427 (  1)  0.2213 (  2) -0.1908 (  3) -0.1059 (  5) -0.3039 ( 11)
          -0.2227 ( 13)  0.1378 ( 14)  0.2459 ( 15) -0.2322 ( 27)  0.1213 ( 29)
           0.1948 ( 32) -0.2317 ( 34)  0.1645 ( 47) -0.1548 ( 49)  0.1645 ( 52)
           0.2566 ( 57) -0.1477 ( 59)  0.1825 ( 60) -0.1669 ( 61) -0.1669 ( 62)
          -0.1277 (141) -0.1349 (143)
 CRD 34=  -0.2714 (  1)  0.3831 (  3) -0.2867 (  4)  0.2144 (  5) -0.1484 (  6)
          -0.1484 (  7)  0.1628 (  8) -0.1395 (  9) -0.1395 ( 10)  0.2130 ( 11)
          -0.1729 ( 13)  0.4410 ( 14)  0.2590 ( 15) -0.1119 ( 49)
 CRD 35=  -0.1274 (  3)  0.1398 (  5)  0.2574 (  8)  0.1082 ( 12) -0.1340 ( 14)
           0.1452 ( 17) -0.3610 ( 23) -0.1407 ( 24)  0.1556 ( 25)  0.1168 ( 30)
          -0.1426 ( 56) -0.1375 ( 66) -0.1358 ( 90) -0.1230 (101)  0.1338 (104)
           0.1547 (116)  0.1413 (128)  0.1248 (131) -0.1303 (132) -0.1260 (135)
          -0.1415 (141) -0.2107 (142)  0.1054 (143)  0.2120 (144) -0.1580 (145)
           0.1844 (148)
 CRD 36=  -0.1231 (  1)  0.1252 (  5)  0.1385 (  8) -0.1681 ( 12) -0.1742 ( 16)
           0.1022 ( 17) -0.1029 ( 23)  0.1282 ( 25)  0.1668 ( 53)  0.1134 ( 56)
           0.1372 ( 63)  0.1198 ( 66) -0.1003 (108) -0.2568 (112)  0.2648 (124)
          -0.1354 (128)  0.1489 (129) -0.1323 (134)  0.1555 (135)  0.3902 (145)
           0.1025 (146) -0.3535 (148)
 CRD 37=  -0.1346 (  1)  0.1438 (  4) -0.1076 ( 17)  0.1394 ( 18)  0.1394 ( 19)
           0.2591 ( 20) -0.1689 ( 21) -0.1689 ( 22) -0.2281 ( 24)  0.1057 ( 27)
          -0.1273 ( 63) -0.2312 ( 67) -0.2312 ( 70) -0.1414 ( 74) -0.1414 ( 76)
           0.1530 ( 80)  0.1530 ( 81)  0.2120 ( 83)  0.2120 ( 84) -0.1581 ( 85)
           0.1873 ( 86) -0.1593 ( 89) -0.1468 (100) -0.1682 (106) -0.1745 (118)
          -0.1191 (141) -0.1655 (143)  0.1156 (146)  0.1204 (147)  0.1656 (148)
 CRD 38=  -0.3799 (  1)  0.2510 (  2) -0.1150 (  4)  0.3678 (  5) -0.1615 (  8)
           0.1109 (  9)  0.1109 ( 10)  0.2157 ( 13) -0.1688 ( 14) -0.1145 ( 27)
           0.3024 ( 30)  0.2861 ( 32) -0.1036 ( 33)  0.2259 ( 34) -0.1672 ( 35)
          -0.1824 ( 49) -0.1886 ( 57)
 CRD 39=   0.1062 (  2) -0.1094 (  3) -0.1809 (  4)  0.1242 (  5) -0.1348 ( 27)
           0.1097 ( 30)  0.1254 ( 32) -0.1212 ( 53) -0.1243 ( 56)  0.1001 ( 63)
           0.1155 ( 66) -0.1275 ( 73)  0.1089 ( 82)  0.1461 ( 92)  0.1535 ( 95)
           0.2143 ( 97) -0.1558 (103) -0.1846 (107) -0.1829 (110)  0.2053 (119)
           0.2259 (122) -0.1689 (127)  0.1301 (128) -0.1827 (129) -0.1583 (134)
           0.1202 (135) -0.1261 (136)  0.1229 (138) -0.1699 (139) -0.1787 (140)
           0.1017 (145) -0.1768 (146) -0.1649 (147)  0.1479 (148)
 CRD 40=   0.3320 (  1) -0.2441 (  3) -0.4368 (  4)  0.1425 (  6)  0.1425 (  7)
           0.2020 ( 14) -0.2508 ( 27) -0.1950 ( 33)  0.1314 ( 35) -0.1053 ( 47)
           0.1194 ( 49) -0.1053 ( 52)  0.1734 ( 57) -0.1645 ( 60)  0.1026 ( 61)
           0.1026 ( 62) -0.1070 ( 89) -0.1117 (117) -0.1170 (118)  0.1017 (139)
 CRD 41=   0.1016 (  2) -0.1969 ( 12)  0.1045 ( 13) -0.2109 ( 16)  0.1003 ( 73)
           0.1115 ( 82)  0.2726 ( 91)  0.1276 ( 92)  0.1682 ( 95) -0.1465 ( 97)
          -0.1065 (103)  0.2806 (108)  0.1164 (110) -0.2582 (115) -0.1203 (119)
          -0.2450 (120) -0.1155 (121) -0.1571 (122) -0.2564 (126) -0.1333 (127)
          -0.2032 (130)  0.1945 (133)  0.1140 (136)  0.2642 (137)  0.1807 (138)
           0.1096 (145)
 CRD 42=   0.1324 (  2)  0.2496 ( 12) -0.1262 ( 13) -0.2262 ( 16) -0.1194 ( 17)
           0.1065 ( 18)  0.1065 ( 19) -0.1035 ( 24)  0.1103 ( 25) -0.1422 ( 37)
           0.1331 ( 41) -0.1422 ( 44)  0.1331 ( 45) -0.1016 ( 56)  0.1037 ( 59)
           0.1518 ( 75)  0.1518 ( 77) -0.1543 ( 78) -0.1543 ( 79) -0.1657 ( 92)
          -0.1269 ( 95) -0.1447 ( 97) -0.1056 (101)  0.1569 (103) -0.1108 (104)
           0.1358 (107) -0.1051 (116) -0.1761 (119)  0.1443 (121) -0.2017 (122)
           0.1260 (128)  0.1236 (131)  0.1107 (132)  0.1125 (135)  0.1095 (136)
          -0.1372 (138) -0.1025 (146) -0.1057 (147)  0.1175 (148)
 CRD 43=  -0.2035 (  2)  0.1828 ( 12)  0.1762 ( 13) -0.1670 ( 16)  0.1946 ( 17)
          -0.2073 ( 25)  0.1304 ( 29) -0.1088 ( 41) -0.1088 ( 45) -0.1317 ( 85)
           0.1672 ( 86)  0.1440 ( 90)  0.1594 (101)  0.1531 (104)  0.1160 (110)
          -0.1041 (119) -0.1177 (122)  0.1332 (127) -0.2208 (129) -0.1355 (131)
          -0.1610 (132) -0.2142 (134)  0.1104 (139)  0.1045 (140) -0.1252 (141)
          -0.1965 (146) -0.1921 (147)
 CRD 44=  -0.1186 (  3) -0.1519 (  6) -0.1519 (  7) -0.1756 (  9) -0.1756 ( 10)
           0.1841 ( 11) -0.1083 ( 14)  0.1722 ( 15) -0.1481 ( 18) -0.1481 ( 19)
           0.1604 ( 20) -0.1526 ( 21) -0.1526 ( 22)  0.1557 ( 24)  0.1282 ( 28)
          -0.1485 ( 29)  0.1282 ( 31) -0.1350 ( 33) -0.1202 ( 35)  0.1079 ( 38)
           0.1079 ( 40)  0.1251 ( 49) -0.1725 ( 59)  0.1100 ( 60)  0.1212 ( 74)
           0.1212 ( 76)  0.1029 ( 80)  0.1029 ( 81) -0.1939 ( 85) -0.1604 ( 86)
          -0.1289 ( 87) -0.1642 ( 90)  0.1447 (100) -0.1384 (106)  0.1747 (116)
           0.1124 (117)  0.1747 (141) -0.2053 (143)  0.1056 (145)
 CRD 45=  -0.2012 (  2) -0.1050 (  9) -0.1050 ( 10)  0.2100 ( 13) -0.2032 ( 17)
           0.1344 ( 18)  0.1344 ( 19) -0.1163 ( 24)  0.1657 ( 25)  0.1344 ( 37)
          -0.1109 ( 41)  0.1344 ( 44) -0.1109 ( 45) -0.1434 ( 59)  0.1080 ( 66)
           0.1111 ( 75)  0.1111 ( 77) -0.1543 ( 78) -0.1543 ( 79)  0.1525 ( 85)
          -0.1059 ( 90)  0.1621 (102)  0.1373 (105)  0.1077 (106)  0.1313 (110)
          -0.1211 (116)  0.1301 (127)  0.1013 (139)  0.1234 (140) -0.1381 (141)
          -0.1980 (142) -0.1018 (143) -0.2900 (144)
 CRD 46=  -0.1495 (  6) -0.1495 (  7) -0.1304 (  9) -0.1304 ( 10)  0.1074 ( 11)
           0.1510 ( 15)  0.1620 ( 18)  0.1620 ( 19) -0.1652 ( 20)  0.2144 ( 21)
           0.2144 ( 22) -0.1257 ( 24) -0.1179 ( 25) -0.1381 ( 29)  0.1000 ( 38)
           0.1000 ( 40)  0.1060 ( 63) -0.1071 ( 73) -0.1012 ( 74) -0.1113 ( 75)
          -0.1012 ( 76) -0.1113 ( 77) -0.1290 ( 80) -0.1290 ( 81)  0.1367 ( 85)
           0.2051 ( 86) -0.2033 ( 89) -0.1116 (100)  0.1369 (101) -0.1030 (104)
           0.1954 (118)  0.1085 (136)  0.2304 (142)
 CRD 47=  -0.2316 (  6) -0.2316 (  7)  0.2329 (  9)  0.2329 ( 10)  0.1280 ( 11)
          -0.1104 ( 15)  0.2392 ( 18)  0.2392 ( 19) -0.1111 ( 20) -0.2243 ( 21)
          -0.2243 ( 22)  0.1016 ( 24)  0.1614 ( 47)  0.1614 ( 52) -0.1566 ( 61)
          -0.1566 ( 62) -0.1393 ( 67) -0.1393 ( 70) -0.1021 ( 80) -0.1021 ( 81)
           0.1382 ( 83)  0.1382 ( 84)  0.1018 ( 85) -0.1004 ( 87) -0.1165 ( 98)
           0.1267 (100)  0.1236 (106)
 CRD 48=  -0.1443 (  6) -0.1443 (  7)  0.1106 (  9)  0.1106 ( 10)  0.2047 ( 12)
          -0.1930 ( 16)  0.1239 ( 58)  0.1027 ( 73)  0.1250 ( 92) -0.2263 ( 93)
          -0.1100 ( 95)  0.1636 ( 96)  0.2246 ( 98)  0.1464 ( 99) -0.1247 (103)
          -0.1539 (108)  0.1571 (110) -0.1443 (115)  0.1602 (119) -0.3579 (120)
          -0.1857 (121)  0.2878 (122)  0.1331 (127) -0.2468 (137)  0.1876 (140)
 CRD 49=   0.1047 (  2) -0.1614 (  6) -0.1614 (  7)  0.1586 (  8)  0.1107 ( 13)
           0.1012 ( 17) -0.1724 ( 18) -0.1724 ( 19)  0.1753 ( 23) -0.1235 ( 24)
           0.1041 ( 25)  0.1394 ( 37)  0.1066 ( 41)  0.1394 ( 44)  0.1066 ( 45)
           0.1373 ( 46)  0.1373 ( 48)  0.1373 ( 50)  0.1373 ( 51) -0.1184 ( 61)
          -0.1184 ( 62)  0.1887 ( 68)  0.1887 ( 69)  0.1887 ( 71)  0.1887 ( 72)
          -0.1147 ( 74)  0.1521 ( 75) -0.1147 ( 76)  0.1521 ( 77)  0.1418 ( 78)
           0.1418 ( 79) -0.1179 ( 83) -0.1179 ( 84) -0.1090 (100) -0.1020 (101)
           0.1530 (104)  0.1025 (106) -0.1299 (131)  0.1689 (132)
 CRD 50=  -0.1659 (  6) -0.1659 (  7)  0.2358 (  9)  0.2358 ( 10)  0.1289 ( 11)
          -0.1961 ( 18) -0.1961 ( 19)  0.1382 ( 20)  0.2532 ( 21)  0.2532 ( 22)
          -0.1050 ( 24)  0.1074 ( 28)  0.1074 ( 31)  0.1427 ( 47)  0.1427 ( 52)
          -0.1013 ( 61) -0.1013 ( 62)  0.1477 ( 67)  0.1477 ( 70)  0.1249 ( 80)
           0.1249 ( 81) -0.1101 ( 83) -0.1101 ( 84)  0.1068 ( 86) -0.1376 ( 89)
           0.1011 ( 94)  0.1342 (101)  0.1188 (102)  0.1107 (105) -0.1375 (118)
           0.1249 (131) -0.1031 (133)
 CRD 51=   0.1029 ( 36)  0.1029 ( 43) -0.1652 ( 91)  0.1185 ( 92)  0.1857 ( 93)
           0.1819 ( 94)  0.1577 ( 95) -0.1252 ( 97)  0.1453 ( 99)  0.1244 (103)
          -0.1752 (107) -0.1584 (109) -0.2875 (114) -0.1981 (122) -0.1310 (126)
           0.1891 (130) -0.1441 (133) -0.1387 (136) -0.1628 (137)  0.3804 (138)
           0.2549 (139) -0.1552 (140)
 CRD 52=   0.1141 (  8) -0.1225 ( 16)  0.1060 ( 46)  0.1060 ( 48)  0.1060 ( 50)
           0.1060 ( 51)  0.1007 ( 54)  0.1007 ( 55) -0.1220 ( 68) -0.1220 ( 69)
          -0.1220 ( 71) -0.1220 ( 72)  0.1008 ( 93)  0.1009 ( 99)  0.1001 (105)
          -0.1213 (111)  0.2041 (112) -0.1073 (113) -0.1353 (114)  0.1262 (123)
          -0.2055 (124)  0.1050 (125) -0.2571 (128)  0.2581 (135)  0.1604 (138)
           0.1077 (139) -0.2716 (146)  0.2700 (147)
 CRD 53=   0.1231 ( 17)  0.1324 ( 23)  0.1246 ( 25) -0.1020 ( 67) -0.1020 ( 70)
          -0.1253 ( 74) -0.1253 ( 76) -0.1220 ( 80) -0.1220 ( 81) -0.1033 ( 83)
          -0.1033 ( 84)  0.1030 ( 87)  0.1806 (102) -0.1785 (105)  0.1384 (111)
          -0.2510 (113) -0.1361 (123)  0.2483 (125) -0.2152 (128)  0.2189 (135)
          -0.1156 (142)  0.1136 (144) -0.2367 (146)  0.2344 (147)
 CRD 54=   0.1515 ( 12)  0.1322 ( 16) -0.1032 ( 39) -0.1032 ( 42) -0.2721 ( 88)
           0.2061 ( 93)  0.1317 ( 94) -0.2113 ( 98)  0.2821 ( 99)  0.2514 (109)
           0.1424 (111) -0.2457 (114)  0.1651 (120) -0.1525 (122) -0.1335 (123)
          -0.1559 (130)  0.1655 (133) -0.1147 (136) -0.2174 (137)  0.2188 (138)
          -0.2636 (139)  0.2790 (140)

 THE DETERMINANT OF THE G MATRIX IS 10**(   -17)


                     --------------------
                     INTERNAL COORDINATES
                     --------------------

                 - - ATOMS - -         COORDINATE      COORDINATE
 NO.   TYPE    I  J  K  L  M  N        (BOHR,RAD)       (ANG,DEG)
 ----------------------------------------------------------------
   1 STRETCH   1  2                     2.4901847       1.3177491
   2 STRETCH   1  4                     2.8474516       1.5068066
   3 STRETCH   1 11                     2.0495378       1.0845688
   4 STRETCH   2  5                     2.8561440       1.5114064
   5 STRETCH   2 12                     2.0448388       1.0820822
   6 STRETCH   3  4                     2.6489853       1.4017828
   7 STRETCH   3  4                     2.6489853       1.4017828
   8 STRETCH   3 13                     2.0468768       1.0831607
   9 STRETCH   3  7                     2.6469951       1.4007296
  10 STRETCH   3  7                     2.6469951       1.4007296
  11 STRETCH   4 14                     2.0516029       1.0856616
  12 STRETCH   4 10                     3.7794519       2.0000000
  13 STRETCH   5  7                     2.9006974       1.5349831
  14 STRETCH   5  6                     2.3126791       1.2238172
  15 STRETCH   7 15                     2.0525994       1.0861889
  16 STRETCH   7  8                     3.7794520       2.0000000
  17 STRETCH   8 16                     2.0476772       1.0835842
  18 STRETCH   8  9                     2.6459860       1.4001956
  19 STRETCH   8  9                     2.6459860       1.4001956
  20 STRETCH   8 17                     2.0498723       1.0847458
  21 STRETCH   9 10                     2.6439147       1.3990995
  22 STRETCH   9 10                     2.6439147       1.3990995
  23 STRETCH   9 18                     2.0482026       1.0838622
  24 STRETCH  10 20                     2.0504399       1.0850462
  25 STRETCH  10 19                     2.0467433       1.0830900
  26 BEND      1  4 10                  1.7364447      99.4909516
  27 BEND      1  2 12                  2.1326516     122.1919366
  28 BEND      1  4  3                  2.0113623     115.2425699
  29 BEND      1  4 14                  1.9978048     114.4657839
  30 BEND      1  2  5                  2.1120062     121.0090434
  31 BEND      1  4  3                  2.0113623     115.2425699
  32 BEND      2  1 11                  2.1151731     121.1904912
  33 BEND      2  1  4                  2.1268802     121.8612602
  34 BEND      2  5  6                  2.1487956     123.1169188
  35 BEND      2  5  7                  1.9935985     114.2247827
  36 BEND      3  7  8                  1.8345516     105.1120653
  37 BEND      3  7 15                  2.0573207     117.8757940
  38 BEND      3  7  5                  2.0307386     116.3527493
  39 BEND      3  4 10                  1.8306088     104.8861566
  40 BEND      3  7  5                  2.0307386     116.3527493
  41 BEND      3  4 14                  2.0590091     117.9725295
  42 BEND      3  4 10                  1.8306088     104.8861566
  43 BEND      3  7  8                  1.8345516     105.1120653
  44 BEND      3  7 15                  2.0573207     117.8757940
  45 BEND      3  4 14                  2.0590091     117.9725295
  46 BEND      4  3  7                  2.0391952     116.8372805
  47 BEND      4  3 13                  2.0780175     119.0616327
  48 BEND      4  3  7                  2.0391952     116.8372805
  49 BEND      4  1 11                  2.0411290     116.9480777
  50 BEND      4  3  7                  2.0391952     116.8372805
  51 BEND      4  3  7                  2.0391952     116.8372805
  52 BEND      4  3 13                  2.0780175     119.0616327
  53 BEND      4 10 20                  1.8086918     103.6304076
  54 BEND      4 10  9                  1.8509800     106.0533402
  55 BEND      4 10  9                  1.8509800     106.0533402
  56 BEND      4 10 19                  1.6541896      94.7780825
  57 BEND      5  2 12                  2.0383930     116.7913175
  58 BEND      5  7  8                  1.7149958      98.2620240
  59 BEND      5  7 15                  1.9756170     113.1945165
  60 BEND      6  5  7                  2.1407780     122.6575468
  61 BEND      7  3 13                  2.0788987     119.1121228
  62 BEND      7  3 13                  2.0788987     119.1121228
  63 BEND      7  8 17                  1.7828332     102.1488182
  64 BEND      7  8  9                  1.8500795     106.0017462
  65 BEND      7  8  9                  1.8500795     106.0017462
  66 BEND      7  8 16                  1.6836894      96.4682957
  67 BEND      8  9 18                  2.0431845     117.0658468
  68 BEND      8  9 10                  2.0878970     119.6276851
  69 BEND      8  9 10                  2.0878970     119.6276851
  70 BEND      8  9 18                  2.0431845     117.0658468
  71 BEND      8  9 10                  2.0878970     119.6276851
  72 BEND      8  9 10                  2.0878970     119.6276851
  73 BEND      8  7 15                  1.7860811     102.3349115
  74 BEND      9 10 19                  2.0542378     117.6991564
  75 BEND      9 10 20                  2.0545285     117.7158106
  76 BEND      9 10 19                  2.0542378     117.6991564
  77 BEND      9 10 20                  2.0545285     117.7158106
  78 BEND      9  8 17                  2.0601308     118.0367990
  79 BEND      9  8 17                  2.0601308     118.0367990
  80 BEND      9  8 16                  2.0491146     117.4056169
  81 BEND      9  8 16                  2.0491146     117.4056169
  82 BEND     10  4 14                  1.7636554     101.0500122
  83 BEND     10  9 18                  2.0448299     117.1601240
  84 BEND     10  9 18                  2.0448299     117.1601240
  85 BEND     16  8 17                  1.9655112     112.6154972
  86 BEND     19 10 20                  1.9673968     112.7235325
  87 TORSION   1  4 10  9              -1.9718710    -112.9798884
  88 TORSION   1  4  3  7               0.7216279      41.3462354
  89 TORSION   1  4 10 19               0.1334475       7.6459770
  90 TORSION   1  4 10 20               2.1367356     122.4259312
  91 TORSION   1  4  3 13              -2.8594993    -163.8372412
  92 TORSION   1  2  5  6               3.1242714     179.0075679
  93 TORSION   1  2  5  7              -0.0226990      -1.3005562
  94 TORSION   2  1  4 10               1.6242365      93.0618949
  95 TORSION   2  1  4 14              -2.7943815    -160.1062671
  96 TORSION   2  5  7  8              -1.5383715     -88.1421916
  97 TORSION   2  5  7 15               2.8723973     164.5762426
  98 TORSION   2  5  7  3               0.4070534      23.3224410
  99 TORSION   2  1  4  3              -0.3221083     -18.4554466
 100 TORSION   3  4 10 19               2.2184282     127.1065752
 101 TORSION   3  4 10 20              -2.0614690    -118.1134706
 102 TORSION   3  4 10  9               0.1131097       6.4807098
 103 TORSION   3  7  5  6              -2.7398892    -156.9840898
 104 TORSION   3  7  8 17               2.1840036     125.1341861
 105 TORSION   3  7  8  9               0.0164988       0.9453133
 106 TORSION   3  7  8 16              -2.0946304    -120.0134813
 107 TORSION   3  4  1 11               2.8168886     161.3958271
 108 TORSION   4  1  2 12               3.1068504     178.0094131
 109 TORSION   4  3  7  5              -0.7724755     -44.2595880
 110 TORSION   4  3  7 15               3.0777564     176.3424548
 111 TORSION   4  3  7  8               1.1028930      63.1911160
 112 TORSION   4 10  9 18              -1.6464203     -94.3329351
 113 TORSION   4 10  9  8               1.0004609      57.3221852
 114 TORSION   4  1  2  5              -0.0165518      -0.9483500
 115 TORSION   5  7  3 13               2.8088823     160.9370995
 116 TORSION   5  7  8 17              -2.0003560    -114.6119586
 117 TORSION   5  7  8  9               2.1153245     121.1991687
 118 TORSION   5  7  8 16               0.0041953       0.2403740
 119 TORSION   5  2  1 11               3.1277457     179.2066296
 120 TORSION   6  5  7 15              -0.2745453     -15.7302882
 121 TORSION   6  5  7  8               1.5978712      91.5512776
 122 TORSION   6  5  2 12              -0.0000761      -0.0043595
 123 TORSION   7  3  4 10              -1.1685267     -66.9516478
 124 TORSION   7  8  9 18               1.5816837      90.6238000
 125 TORSION   7  8  9 10              -1.0656517     -61.0573462
 126 TORSION   7  5  2 12               3.1361388     179.6875163
 127 TORSION   7  3  4 14              -3.1137423    -178.4042898
 128 TORSION   8  9 10 19              -0.8219457     -47.0940174
 129 TORSION   8  9 10 20               3.0137320     172.6741216
 130 TORSION   8  7  3 13              -1.5989345     -91.6121965
 131 TORSION   9  8  7 15              -2.1424211    -122.7516888
 132 TORSION   9 10  4 14               2.2619851     129.6021992
 133 TORSION  10  4  3 13               1.5335314      87.8648757
 134 TORSION  10  9  8 17              -3.0487971    -174.6832083
 135 TORSION  10  9  8 16               0.7896650      45.2444724
 136 TORSION  10  4  1 11              -1.5199519     -87.0868314
 137 TORSION  11  1  4 14               0.3446154      19.7450065
 138 TORSION  11  1  2 12              -0.0320374      -1.8356074
 139 TORSION  13  3  7 15               0.3759290      21.5391423
 140 TORSION  13  3  4 14              -0.4116842     -23.5877664
 141 TORSION  14  4 10 19              -1.9158817    -109.7719354
 142 TORSION  14  4 10 20               0.0874064       5.0080187
 143 TORSION  15  7  8 16               2.0296349     116.2895165
 144 TORSION  15  7  8 17               0.0250836       1.4371839
 145 TORSION  16  8  9 18              -2.8461849    -163.0743814
 146 TORSION  17  8  9 18              -0.4014617     -23.0020621
 147 TORSION  18  9 10 20               0.3668508      21.0190013
 148 TORSION  18  9 10 19               2.8143585     161.2508623

     ------------------------------------------
     THE POINT GROUP IS C1 , NAXIS= 0, ORDER= 1
     ------------------------------------------

     DIMENSIONS OF THE SYMMETRY SUBSPACES ARE
 A   =   60

 ..... DONE SETTING UP THE RUN .....
 STEP CPU TIME =     0.05 TOTAL CPU TIME =          0.0 (      0.0 MIN)
 TOTAL WALL CLOCK TIME=          0.1 SECONDS, CPU UTILIZATION IS    71.43%


          -----------------------------
          STATIONARY POINT LOCATION RUN
          -----------------------------

 OBTAINING INITIAL HESSIAN, HESS=CALC    

     ---------------------------------
     HESSIAN MATRIX CONTROL PARAMETERS
     ---------------------------------
     METHOD=ANALYTIC   NVIB  =       2   VIBSIZ= 0.01000
     RDHESS=       F   PURIFY=       F   PRTIFC=       F
     VIBANL=       F   DECOMP=       F   PROJCT=       F
     SCLFAC= 1.00000   PRTSCN=       F   NPRT  =       0
     PULCOR=       F   NPUN  =       0   REDOVB=       T
     HSSTYP=GENERAL 
 Old integral subroutine is used

     ------------------------------
     CPHF RESPONSE SOLUTION OPTIONS
     ------------------------------
     POLAR  =       F     NWORD  =       0
     CPHF   =AO      

          ********************
          1 ELECTRON INTEGRALS
          ********************
 ...... END OF ONE-ELECTRON INTEGRALS ......
 STEP CPU TIME =     0.01 TOTAL CPU TIME =          0.1 (      0.0 MIN)
 TOTAL WALL CLOCK TIME=          0.1 SECONDS, CPU UTILIZATION IS    66.67%

          -------------
          GUESS OPTIONS
          -------------
          GUESS =HUCKEL            NORB  =       0          NORDER=       0
          MIX   =       F          PRTMO =       F          PUNMO =       F
          TOLZ  = 1.0E-08          TOLE  = 1.0E-05
          SYMDEN=       F          PURIFY=       F

 INITIAL GUESS ORBITALS GENERATED BY HUCKEL   ROUTINE.
 HUCKEL GUESS REQUIRES     53820 WORDS.

 SYMMETRIES FOR INITIAL GUESS ORBITALS FOLLOW.   BOTH SET(S).
    36 ORBITALS ARE OCCUPIED (   10 CORE ORBITALS).
    11=A       12=A       13=A       14=A       15=A       16=A       17=A   
    18=A       19=A       20=A       21=A       22=A       23=A       24=A   
    25=A       26=A       27=A       28=A       29=A       30=A       31=A   
    32=A       33=A       34=A       35=A       36=A       37=A       38=A   
    39=A       40=A       41=A       42=A       43=A       44=A       45=A   
    46=A   
 ...... END OF INITIAL ORBITAL SELECTION ......
 STEP CPU TIME =     0.01 TOTAL CPU TIME =          0.1 (      0.0 MIN)
 TOTAL WALL CLOCK TIME=          0.1 SECONDS, CPU UTILIZATION IS    70.00%

                    ----------------------
                    AO INTEGRAL TECHNOLOGY
                    ----------------------
     S,P,L SHELL ROTATED AXIS INTEGRALS, REPROGRAMMED BY
        KAZUYA ISHIMURA (IMS) AND JOSE SIERRA (SYNSTAR).
     S,P,D,L SHELL ROTATED AXIS INTEGRALS PROGRAMMED BY
        KAZUYA ISHIMURA (INSTITUTE FOR MOLECULAR SCIENCE).
     S,P,D,F,G SHELL TO TOTAL QUARTET ANGULAR MOMENTUM SUM 5,
        ERIC PROGRAM BY GRAHAM FLETCHER (ELORET AND NASA ADVANCED
        SUPERCOMPUTING DIVISION, AMES RESEARCH CENTER).
     S,P,D,F,G,L SHELL GENERAL RYS QUADRATURE PROGRAMMED BY
        MICHEL DUPUIS (PACIFIC NORTHWEST NATIONAL LABORATORY).

          --------------------
          2 ELECTRON INTEGRALS
          --------------------

 THE -PK- OPTION IS OFF, THE INTEGRALS ARE NOT IN SUPERMATRIX FORM.
 STORING   15000 INTEGRALS/RECORD ON DISK, USING 12 BYTES/INTEGRAL.
 TWO ELECTRON INTEGRAL EVALUATION REQUIRES   89821 WORDS OF MEMORY.
 SCHWARZ INEQUALITY OVERHEAD:      1797 INTEGRALS, T=        0.00
 II,JST,KST,LST =  1  1  1  1 NREC =         1 INTLOC =    1
 II,JST,KST,LST =  2  1  1  1 NREC =         1 INTLOC =    2
 II,JST,KST,LST =  3  1  1  1 NREC =         1 INTLOC =   34
 II,JST,KST,LST =  4  1  1  1 NREC =         1 INTLOC =  144
 II,JST,KST,LST =  5  1  1  1 NREC =         1 INTLOC = 1366
 II,JST,KST,LST =  6  1  1  1 NREC =         1 INTLOC = 1900
 II,JST,KST,LST =  7  1  1  1 NREC =         1 INTLOC = 6748
 II,JST,KST,LST =  8  1  1  1 NREC =         1 INTLOC = 8551
 II,JST,KST,LST =  9  1  1  1 NREC =         2 INTLOC = 6053
 II,JST,KST,LST = 10  1  1  1 NREC =         2 INTLOC = 9798
 II,JST,KST,LST = 11  1  1  1 NREC =         4 INTLOC = 5213
 II,JST,KST,LST = 12  1  1  1 NREC =         4 INTLOC =11377
 II,JST,KST,LST = 13  1  1  1 NREC =         7 INTLOC = 6241
 II,JST,KST,LST = 14  1  1  1 NREC =         8 INTLOC = 2868
 II,JST,KST,LST = 15  1  1  1 NREC =        12 INTLOC =14429
 II,JST,KST,LST = 16  1  1  1 NREC =        14 INTLOC =  166
 II,JST,KST,LST = 17  1  1  1 NREC =        21 INTLOC = 1913
 II,JST,KST,LST = 18  1  1  1 NREC =        22 INTLOC = 8218
 II,JST,KST,LST = 19  1  1  1 NREC =        32 INTLOC = 6233
 II,JST,KST,LST = 20  1  1  1 NREC =        34 INTLOC = 7438
 II,JST,KST,LST = 21  1  1  1 NREC =        48 INTLOC = 1920
 II,JST,KST,LST = 22  1  1  1 NREC =        52 INTLOC = 1413
 II,JST,KST,LST = 23  1  1  1 NREC =        56 INTLOC = 4710
 II,JST,KST,LST = 24  1  1  1 NREC =        60 INTLOC =12735
 II,JST,KST,LST = 25  1  1  1 NREC =        65 INTLOC = 8586
 II,JST,KST,LST = 26  1  1  1 NREC =        70 INTLOC =11174
 II,JST,KST,LST = 27  1  1  1 NREC =        76 INTLOC = 4239
 II,JST,KST,LST = 28  1  1  1 NREC =        81 INTLOC =14141
 II,JST,KST,LST = 29  1  1  1 NREC =        87 INTLOC = 9509
 II,JST,KST,LST = 30  1  1  1 NREC =        93 INTLOC =14965
 SCHWARZ INEQUALITY TEST SKIPPED       24259 INTEGRAL BLOCKS.
 TOTAL NUMBER OF NONZERO TWO-ELECTRON INTEGRALS =             1488283
        100 INTEGRAL RECORDS WERE STORED ON DISK FILE  8.
  ...... END OF TWO-ELECTRON INTEGRALS .....
 STEP CPU TIME =     0.29 TOTAL CPU TIME =          0.4 (      0.0 MIN)
 TOTAL WALL CLOCK TIME=          0.4 SECONDS, CPU UTILIZATION IS    92.31%

          --------------------------
                 RHF SCF CALCULATION
          --------------------------

     NUCLEAR ENERGY =       509.6664159277
     MAXIT =   30     NPUNCH=    2
     EXTRAP=T  DAMP=F  SHIFT=F  RSTRCT=F  DIIS=F  DEM=F  SOSCF=T
     DENSITY MATRIX CONV=  1.00E-05
     SOSCF WILL OPTIMIZE     864 ORBITAL ROTATIONS, SOGTOL=   0.250
     MEMORY REQUIRED FOR RHF ITERS=     59496 WORDS.

 ITER EX DEM     TOTAL ENERGY        E CHANGE  DENSITY CHANGE     ORB. GRAD
   1  0  0     -415.5233338525  -415.5233338525   0.536120880   0.000000000
          ---------------START SECOND ORDER SCF---------------
   2  1  0     -416.0288474809    -0.5055136284   0.316553495   0.064710265
   3  2  0     -416.0582466707    -0.0293991898   0.156850494   0.049254616
   4  3  0     -416.0921753287    -0.0339286580   0.024960624   0.007295885
   5  4  0     -416.0930422879    -0.0008669592   0.006312583   0.002944490
   6  5  0     -416.0931504760    -0.0001081881   0.002154698   0.000763201
   7  6  0     -416.0931629971    -0.0000125211   0.000697875   0.000261414
   8  7  0     -416.0931648505    -0.0000018534   0.000281566   0.000072908
   9  8  0     -416.0931650269    -0.0000001763   0.000147964   0.000023641
  10  9  0     -416.0931650582    -0.0000000314   0.000055040   0.000011405
  11 10  0     -416.0931650632    -0.0000000050   0.000025685   0.000003465
  12 11  0     -416.0931650642    -0.0000000010   0.000007939   0.000001364
  13 12  0     -416.0931650643    -0.0000000001   0.000003391   0.000000517

          -----------------
          DENSITY CONVERGED
          -----------------
     TIME TO FORM FOCK OPERATORS=       0.3 SECONDS (       0.0 SEC/ITER)
     TIME TO SOLVE SCF EQUATIONS=       0.1 SECONDS (       0.0 SEC/ITER)

 FINAL RHF ENERGY IS     -416.0931650643 AFTER  13 ITERATIONS

          ------------
          EIGENVECTORS
          ------------

                      1          2          3          4          5
                  -20.2612   -11.1181   -11.0543   -11.0493   -11.0456
                     A          A          A          A          A   
    1  C  1  S    0.000005  -0.000272  -0.023402   0.991730  -0.002263
    2  C  1  S    0.000054   0.000111  -0.006870   0.035857  -0.000054
    3  C  1  X    0.000076  -0.000087   0.004240   0.000608  -0.000037
    4  C  1  Y   -0.000004  -0.000021  -0.000786  -0.001510  -0.000026
    5  C  1  Z    0.000003  -0.000010   0.000204  -0.000384  -0.000012
    6  C  2  S   -0.000025  -0.001005  -0.001145   0.019720   0.000519
    7  C  2  S    0.000270  -0.005689   0.000345  -0.007397   0.000041
    8  C  2  X    0.000295   0.002363  -0.000154   0.001637  -0.000020
    9  C  2  Y   -0.000400   0.003163   0.000104  -0.004067  -0.000023
   10  C  2  Z   -0.000129   0.001193  -0.000012  -0.001280   0.000044
   11  C  3  S    0.000004  -0.000278   0.003989  -0.001145  -0.001957
   12  C  3  S    0.000033   0.000069  -0.006886  -0.000014   0.001731
   13  C  3  X   -0.000064  -0.000019  -0.002543  -0.000134   0.000262
   14  C  3  Y   -0.000029   0.000001  -0.002924  -0.000047  -0.001138
   15  C  3  Z    0.000013   0.000022  -0.002417   0.000013   0.000038
   16  C  4  S    0.000003  -0.000254   0.991341   0.024201  -0.002464
   17  C  4  S    0.000007  -0.000063   0.036239  -0.004860   0.000090
   18  C  4  X   -0.000007  -0.000067   0.000234  -0.004048  -0.000031
   19  C  4  Y    0.000041   0.000080  -0.000339   0.000914  -0.000024
   20  C  4  Z    0.000001   0.000031  -0.001694   0.000120   0.000135
   21  C  5  S    0.000548   0.992564   0.000266   0.000342  -0.000369
   22  C  5  S   -0.007195   0.032728  -0.000008   0.000149   0.001469
   23  C  5  X   -0.002095   0.000253  -0.000007   0.000070  -0.001020
   24  C  5  Y    0.005722  -0.000341  -0.000129  -0.000130   0.000227
   25  C  5  Z    0.001900   0.000005  -0.000062  -0.000039   0.000014
   26  O  6  S    0.994267   0.000162   0.000005   0.000013  -0.000003
   27  O  6  S    0.025993  -0.005790  -0.000052  -0.000115  -0.000029
   28  O  6  X   -0.001840   0.000551   0.000017   0.000003   0.000034
   29  O  6  Y    0.005028  -0.001548  -0.000029  -0.000061  -0.000015
   30  O  6  Z    0.001681  -0.000529  -0.000006  -0.000022   0.000033
   31  C  7  S   -0.000024  -0.001607  -0.004045  -0.005425  -0.231471
   32  C  7  S    0.000270  -0.005397  -0.000068  -0.000230  -0.010963
   33  C  7  X    0.000040  -0.003871  -0.000111  -0.000126   0.000400
   34  C  7  Y   -0.000438   0.001074  -0.000084  -0.000114   0.000321
   35  C  7  Z   -0.000186   0.000352  -0.000132  -0.000051  -0.002002
   36  C  8  S   -0.000005  -0.000223  -0.000709   0.000653   0.962173
   37  C  8  S   -0.000000   0.000302  -0.000022   0.000046   0.035626
   38  C  8  X    0.000017  -0.000021  -0.000037   0.000011  -0.000114
   39  C  8  Y   -0.000014  -0.000065  -0.000064  -0.000022   0.000317
   40  C  8  Z   -0.000040   0.000261   0.000024  -0.000013   0.000962
   41  C  9  S   -0.000000   0.000015  -0.000572   0.000062   0.003888
   42  C  9  S    0.000010  -0.000030   0.000351   0.000059  -0.006180
   43  C  9  X   -0.000004   0.000035   0.000143   0.000050  -0.001252
   44  C  9  Y   -0.000008   0.000052   0.000194   0.000001   0.003934
   45  C  9  Z   -0.000003  -0.000005  -0.000030  -0.000034   0.001991
   46  C 10  S   -0.000000   0.000023  -0.030324  -0.005618  -0.068177
   47  C 10  S    0.000003  -0.000004  -0.003825   0.000020  -0.002372
   48  C 10  X   -0.000001   0.000014  -0.000496  -0.000014  -0.000031
   49  C 10  Y    0.000002  -0.000005  -0.000536   0.000023   0.000144
   50  C 10  Z   -0.000000  -0.000004   0.002358   0.000308  -0.000020
   51  H 11  S   -0.000021  -0.000038   0.000240  -0.006826   0.000024
   52  H 12  S   -0.000191   0.000012  -0.000037   0.000011   0.000013
   53  H 13  S   -0.000020  -0.000052   0.000079  -0.000080  -0.000014
   54  H 14  S   -0.000016  -0.000026  -0.006924  -0.000128   0.000015
   55  H 15  S   -0.000179  -0.000014  -0.000090  -0.000023   0.001758
   56  H 16  S    0.000080  -0.001053   0.000005  -0.000043  -0.006761
   57  H 17  S   -0.000006  -0.000035  -0.000017  -0.000014  -0.006721
   58  H 18  S   -0.000002   0.000006  -0.000001   0.000001   0.000039
   59  H 19  S   -0.000002   0.000007   0.000362  -0.000955   0.000444
   60  H 20  S   -0.000002   0.000002   0.000358  -0.000013   0.000377

                      6          7          8          9         10
                  -11.0452   -11.0444   -11.0259   -11.0184   -11.0121
                     A          A          A          A          A   
    1  C  1  S    0.004681   0.005182  -0.019201   0.001211  -0.000076
    2  C  1  S    0.000130   0.000117  -0.008920   0.000148   0.000008
    3  C  1  X    0.000053   0.000117  -0.001696   0.000018  -0.000003
    4  C  1  Y    0.000001   0.000129   0.004184   0.000111  -0.000035
    5  C  1  Z    0.000061   0.000024   0.001328   0.000142   0.000030
    6  C  2  S    0.000333  -0.001230   0.991968   0.004354  -0.000031
    7  C  2  S    0.000019   0.000064   0.036540   0.000091  -0.000014
    8  C  2  X   -0.000004   0.000034  -0.000832   0.000178   0.000003
    9  C  2  Y   -0.000002  -0.000024   0.001656  -0.000042  -0.000003
   10  C  2  Z    0.000025  -0.000027   0.000434   0.000079   0.000001
   11  C  3  S   -0.000984   0.004990  -0.004260   0.991917   0.018754
   12  C  3  S    0.000120  -0.006702  -0.000267   0.036682   0.000200
   13  C  3  X    0.000014  -0.000993  -0.000216   0.000239   0.000187
   14  C  3  Y   -0.000183   0.004298   0.000053  -0.000802   0.000145
   15  C  3  Z   -0.000011  -0.000059  -0.000012   0.002320  -0.000573
   16  C  4  S    0.031166   0.004853   0.000709  -0.003180   0.000403
   17  C  4  S   -0.001568   0.000169   0.000406  -0.007227   0.000019
   18  C  4  X    0.000581  -0.000054   0.000146   0.002610   0.000080
   19  C  4  Y    0.000611   0.000214   0.000063   0.002886   0.000131
   20  C  4  Z   -0.002407  -0.000114  -0.000014   0.002453   0.000039
   21  C  5  S   -0.000088   0.002583   0.001994   0.000340  -0.000013
   22  C  5  S    0.000211  -0.005484  -0.005878   0.000128  -0.000010
   23  C  5  X   -0.000146   0.003970  -0.002542  -0.000041   0.000014
   24  C  5  Y    0.000030  -0.000939  -0.003122  -0.000150   0.000015
   25  C  5  Z    0.000004  -0.000006  -0.001153   0.000055   0.000046
   26  O  6  S    0.000001  -0.000022  -0.000022   0.000009   0.000000
   27  O  6  S   -0.000010   0.000244   0.000249  -0.000084   0.000005
   28  O  6  X    0.000008  -0.000219   0.000122   0.000032   0.000000
   29  O  6  Y   -0.000006   0.000069   0.000174  -0.000024   0.000006
   30  O  6  Z    0.000005  -0.000003   0.000063  -0.000032  -0.000006
   31  C  7  S   -0.033154   0.964172   0.001495  -0.004551   0.000548
   32  C  7  S   -0.001343   0.034205   0.000247  -0.007287   0.000018
   33  C  7  X   -0.000003   0.000257  -0.000006   0.001094   0.000052
   34  C  7  Y   -0.000007   0.001278  -0.000026  -0.004471  -0.000146
   35  C  7  Z   -0.000155  -0.001881  -0.000061   0.000102  -0.000050
   36  C  8  S    0.062216   0.234051  -0.000271   0.000884  -0.003371
   37  C  8  S    0.002465   0.005874   0.000088   0.000299  -0.007223
   38  C  8  X   -0.000096  -0.000422   0.000055   0.000002   0.001509
   39  C  8  Y   -0.000071  -0.000659  -0.000060  -0.000026  -0.003888
   40  C  8  Z    0.000052   0.002690   0.000009   0.000068  -0.002028
   41  C  9  S    0.004563   0.000469   0.000105  -0.018514   0.991932
   42  C  9  S   -0.007246  -0.001613   0.000028  -0.001167   0.036727
   43  C  9  X   -0.002717  -0.000359  -0.000002  -0.000048   0.000721
   44  C  9  Y   -0.003422   0.000758   0.000003  -0.000201   0.000628
   45  C  9  Z   -0.000167   0.000395  -0.000009   0.000677  -0.002361
   46  C 10  S    0.989199   0.017498  -0.000217   0.000980  -0.003512
   47  C 10  S    0.035930   0.000670   0.000046   0.000289  -0.007243
   48  C 10  X   -0.000445  -0.000044   0.000047   0.000030   0.002713
   49  C 10  Y   -0.000911   0.000026   0.000015  -0.000030   0.003751
   50  C 10  Z    0.001332   0.000099   0.000021   0.000086   0.000339
   51  H 11  S    0.000013  -0.000092   0.000266  -0.000106  -0.000003
   52  H 12  S   -0.000002  -0.000067  -0.006868  -0.000089   0.000001
   53  H 13  S   -0.000001   0.000069  -0.000031  -0.006919  -0.000118
   54  H 14  S   -0.000084  -0.000155  -0.000094   0.000107  -0.000042
   55  H 15  S    0.000222  -0.006713  -0.000099   0.000119  -0.000032
   56  H 16  S   -0.000488  -0.001500  -0.000213  -0.000044   0.000019
   57  H 17  S   -0.000544  -0.001499  -0.000018  -0.000040   0.000104
   58  H 18  S    0.000050   0.000009  -0.000004   0.000142  -0.007002
   59  H 19  S   -0.006920  -0.000136  -0.000103  -0.000057   0.000015
   60  H 20  S   -0.006901  -0.000164  -0.000010  -0.000031   0.000108

                     11         12         13         14         15
                   -1.3129    -1.0917    -1.0182    -0.9718    -0.9334
                     A          A          A          A          A   
    1  C  1  S   -0.006025  -0.103353   0.093392   0.105354  -0.008457
    2  C  1  S    0.014334   0.263393  -0.245542  -0.283215   0.027137
    3  C  1  X    0.000612  -0.032860  -0.012083  -0.049789  -0.093672
    4  C  1  Y   -0.006476  -0.042358   0.052176   0.061138   0.086825
    5  C  1  Z   -0.002088  -0.013851   0.022433   0.010408   0.025543
    6  C  2  S   -0.021742  -0.081436   0.091423   0.105660   0.086678
    7  C  2  S    0.052868   0.204553  -0.237201  -0.280218  -0.235382
    8  C  2  X   -0.017571  -0.044719   0.030789   0.009575   0.023715
    9  C  2  Y   -0.020044   0.042938  -0.049427  -0.069193   0.021878
   10  C  2  Z   -0.007467   0.012993  -0.012015  -0.026108   0.006919
   11  C  3  S   -0.005568  -0.108593   0.008489  -0.128343  -0.047794
   12  C  3  S    0.012741   0.273073  -0.022006   0.342731   0.130373
   13  C  3  X    0.003238   0.047875  -0.020382   0.013294   0.021562
   14  C  3  Y   -0.004839  -0.013921  -0.015169  -0.064675   0.114722
   15  C  3  Z    0.000899   0.043211   0.002932   0.014605   0.048116
   16  C  4  S   -0.003225  -0.112819   0.030998  -0.020345  -0.131056
   17  C  4  S    0.007685   0.297197  -0.082691   0.052115   0.372534
   18  C  4  X    0.000982   0.010771  -0.046222  -0.086881  -0.022831
   19  C  4  Y   -0.002470  -0.050093   0.005332  -0.037327   0.006631
   20  C  4  Z   -0.001202  -0.025743   0.027532  -0.056167  -0.012099
[...]
 18   H            X  0.00951076  0.04990867 -0.03293687  0.00052225 -0.00004347
                   Y  0.07472708 -0.00714290 -0.21416965  0.00859165  0.00036939
                   Z  0.02396708  0.00310814 -0.06381543  0.00291743 -0.00015306
 19   H            X -0.04992776 -0.07187482 -0.04809624  0.00228460  0.00012256
                   Y  0.20406679  0.36423230  0.27350052 -0.00388198 -0.00172437
                   Z  0.20534429  0.20884420  0.12669996 -0.00109320  0.00289722
 20   H            X  0.26213229  0.44030677  0.22962008 -0.00557295 -0.00194653
                   Y  0.05489725  0.10075907 -0.01441286 -0.00256429 -0.00184985
                   Z  0.13685875  0.13634226  0.08669140  0.00832770  0.00429153

 TRANS. SAYVETZ    X  0.00000094  0.00000016  0.00000227  0.00000132  0.00000153
                   Y -0.00000122  0.00000028 -0.00000052 -0.00000096  0.00000017
                   Z  0.00000065 -0.00000015  0.00000084  0.00000209  0.00000211
               TOTAL  0.00000167  0.00000035  0.00000248  0.00000265  0.00000261

   ROT. SAYVETZ    X  0.00040221  0.00006666 -0.00101921  0.00014668  0.00017397
                   Y -0.00031486  0.00038451  0.00025944 -0.00006088  0.00007412
                   Z  0.00018824  0.00006756 -0.00014915  0.00011527 -0.00001299
               TOTAL  0.00054437  0.00039605  0.00106223  0.00019624  0.00018955

                           51          52          53          54          55
       FREQUENCY:      3629.97     3634.06     3685.65     3692.54     3695.57  
        SYMMETRY:         A           A           A           A           A   
    REDUCED MASS:      1.06267     1.06467     1.09104     1.09409     1.09592
    IR INTENSITY:      0.10435     0.07116     0.19311     0.04521     0.14800

  1   C            X -0.00038295  0.00006378  0.00346508  0.00813368  0.00403194
                   Y -0.00049249 -0.00004817  0.00620483  0.01327267  0.00601227
                   Z  0.00031662 -0.00010652  0.00234623  0.00496357  0.00228757
  2   C            X  0.00050172  0.00012560 -0.00324710 -0.00791711 -0.00336965
                   Y -0.00013408 -0.00011941  0.00006988  0.00053416  0.00016515
                   Z  0.00004630 -0.00006650  0.00006361  0.00006343 -0.00001435
  3   C            X  0.00348462  0.00111518 -0.03745856 -0.00675359 -0.00051020
                   Y -0.00108565  0.00012146  0.00981809  0.00702976  0.00050842
                   Z  0.00085174  0.00039804 -0.00987936 -0.00060126 -0.00005105
  4   C            X -0.00082160 -0.00055531  0.00985039  0.01315370  0.00356703
                   Y  0.00318522  0.00054470 -0.03723036 -0.06057912 -0.01865843
                   Z  0.00014157 -0.00099075  0.00071988  0.00020049 -0.00074607
  5   C            X  0.00012643 -0.00005299 -0.00130214  0.00183416 -0.00015881
                   Y -0.00010655  0.00001149 -0.00000405  0.00009054  0.00005570
                   Z  0.00032208  0.00029687  0.00002540  0.00004979  0.00005759
  6   O            X -0.00000109  0.00001967  0.00008025 -0.00022226  0.00002873
                   Y -0.00000908 -0.00003824 -0.00000996  0.00007660 -0.00002546
                   Z -0.00001547  0.00001022  0.00001248  0.00001145 -0.00002522
  7   C            X -0.00213761 -0.00048276  0.03487658 -0.02992949  0.00582045
                   Y -0.00175982 -0.00153348  0.03713569 -0.03518892  0.00738576
                   Z -0.00173153  0.00007299  0.02874085 -0.02581780  0.00462549
  8   C            X -0.00970684 -0.01837849 -0.00387384 -0.00067471  0.00786943
                   Y  0.03120377  0.05718933  0.00514305  0.00220673 -0.00767976
                   Z -0.00134903 -0.00375922 -0.00018320  0.00093497 -0.00069826
  9   C            X -0.00833377 -0.00330709  0.01673782  0.00937563 -0.07994326
                   Y  0.00365818 -0.00593239 -0.00222074 -0.00158073  0.01091484
                   Z -0.00122241 -0.00245817 -0.00090985 -0.00062941  0.00428889
 10   C            X -0.02925416  0.01712909 -0.00452556 -0.00172644  0.00935140
                   Y -0.03990687  0.02258070 -0.00360223  0.00001475  0.00487885
                   Z -0.03250332  0.01933772 -0.00263366 -0.00098394  0.00333610
 11   H            X  0.00520002  0.00029361 -0.05125196 -0.11199292 -0.05146878
                   Y  0.00551278  0.00072920 -0.06344497 -0.13897225 -0.06385356
                   Z  0.00240326  0.00029465 -0.02508640 -0.05426524 -0.02500259
 12   H            X -0.00590409 -0.00151901  0.03379931  0.09308347  0.03862679
                   Y  0.00127107  0.00048561 -0.00661671 -0.01725816 -0.00719441
                   Z -0.00023379  0.00023293 -0.00101061 -0.00347669 -0.00151688
 13   H            X -0.04113212 -0.01185139  0.43469025  0.08772654  0.01283334
                   Y  0.01175709  0.00328205 -0.12698839 -0.02703836 -0.00383992
                   Z -0.01052431 -0.00306575  0.11806500  0.02330695  0.00348656
 14   H            X  0.00828101  0.00274981 -0.09913952 -0.15634957 -0.04685850
                   Y -0.03767566 -0.01211195  0.42937237  0.68232178  0.20500665
                   Z  0.00262509  0.00110263 -0.01028572 -0.01470000 -0.00320965
 15   H            X  0.02268756  0.00623983 -0.38711006  0.34458514 -0.06666181
                   Y  0.02429718  0.00678682 -0.42391097  0.37943678 -0.07367912
                   Z  0.02167764  0.00614719 -0.33552931  0.29830393 -0.05684411
 16   H            X  0.31342790  0.57055618  0.06120963  0.01345670 -0.08787526
                   Y -0.09495739 -0.17476131 -0.01763679 -0.00388551  0.02477145
                   Z  0.06225100  0.11459308  0.00993789  0.00243984 -0.01890743
 17   H            X -0.20596321 -0.37006643 -0.02292413 -0.00808184  0.01569617
                   Y -0.24726361 -0.44362875 -0.02784393 -0.00969834  0.02014086
                   Z -0.03046354 -0.05527611 -0.00533785 -0.00207068  0.00438715
 18   H            X  0.14151855  0.03822191 -0.18505020 -0.10509321  0.89579874
                   Y -0.01984164 -0.00841988  0.02712777  0.01531989 -0.13028211
                   Z -0.00326686 -0.00179000  0.00414838  0.00264965 -0.02305661
 19   H            X  0.55910577 -0.32118726  0.05760374  0.02081801 -0.08726685
                   Y -0.07437895  0.04244635 -0.00724459 -0.00302751  0.01397515
                   Z  0.15765396 -0.09180767  0.01393666  0.00573788 -0.02475419
 20   H            X -0.24324937  0.13796234 -0.01601990 -0.00192635  0.01185044
                   Y  0.49617583 -0.28118810  0.03500142  0.00507482 -0.02730037
                   Z  0.21638561 -0.12210078  0.01318873  0.00170152 -0.00999344

 TRANS. SAYVETZ    X -0.00000046  0.00000048 -0.00000019 -0.00000018  0.00000007
                   Y -0.00000037 -0.00000008  0.00000028  0.00000032  0.00000030
                   Z -0.00000020  0.00000031 -0.00000037 -0.00000023  0.00000021
               TOTAL  0.00000062  0.00000058  0.00000050  0.00000043  0.00000037

   ROT. SAYVETZ    X -0.00002531  0.00008379  0.00000186  0.00015567  0.00000159
                   Y  0.00003271  0.00000738  0.00014981 -0.00002420 -0.00007859
                   Z  0.00000523  0.00000489  0.00003743  0.00007517 -0.00001589
               TOTAL  0.00004169  0.00008426  0.00015443  0.00017455  0.00008019

                           56          57          58          59          60
       FREQUENCY:      3703.91     3712.54     3736.09     3777.06     3779.49  
        SYMMETRY:         A           A           A           A           A   
    REDUCED MASS:      1.09128     1.10017     1.10606     1.11636     1.11670
    IR INTENSITY:      0.55354     0.10435     0.06738     0.00286     0.01521

  1   C            X -0.04138652  0.00467974 -0.02349131  0.00031971  0.00018358
                   Y -0.05042518  0.00295593 -0.04077956  0.00046959  0.00040142
                   Z -0.01941765  0.00124312 -0.01514033  0.00042528  0.00027623
  2   C            X  0.04130249 -0.01047384 -0.07154338 -0.00008094  0.00006009
                   Y -0.00435191  0.00221756  0.02053913 -0.00001196 -0.00016495
                   Z -0.00061089  0.00051631  0.00533940  0.00008560  0.00004007
  3   C            X -0.01376793 -0.06691286  0.00454470 -0.00040937 -0.00071320
                   Y  0.00540847  0.02015372 -0.00135134  0.00000413  0.00023896
                   Z -0.00383735 -0.02114382  0.00141133 -0.00014299 -0.00027351
  4   C            X  0.00599211 -0.00497196  0.00255166  0.00016351 -0.00000418
                   Y -0.01474660  0.03515933 -0.00484996  0.00068063  0.00082559
                   Z  0.00048992  0.00244842 -0.00020974 -0.00016503 -0.00019460
  5   C            X -0.00138002  0.00116438  0.00140859 -0.00002372  0.00003135
                   Y -0.00069479 -0.00018474  0.00180339 -0.00005513 -0.00004707
                   Z -0.00030247 -0.00005200  0.00069077 -0.00008589  0.00019292
  6   O            X  0.00020962 -0.00014321 -0.00006967  0.00000431  0.00000425
                   Y -0.00000621  0.00012055 -0.00032245  0.00001616 -0.00001749
                   Z  0.00000031  0.00003678 -0.00012163 -0.00000271  0.00002374
  7   C            X -0.00456719 -0.01386723  0.00139889 -0.00004209 -0.00023339
                   Y -0.00632336 -0.02125443  0.00175011  0.00012368 -0.00054640
                   Z -0.00418503 -0.01258030  0.00104413 -0.00002279 -0.00068769
  8   C            X  0.00050141  0.00171480 -0.00032308  0.03278633 -0.08144588
                   Y -0.00020946  0.00027666  0.00005815  0.01055745 -0.02739841
                   Z  0.00023730  0.00072350 -0.00008912  0.00612294 -0.01519103
  9   C            X -0.00544971 -0.00883629  0.00006410 -0.00221740 -0.00531325
                   Y  0.00059272  0.00110579 -0.00002016 -0.00075359  0.00112728
                   Z  0.00036280  0.00076135 -0.00001839 -0.00009502  0.00074120
 10   C            X -0.00006905  0.00161913 -0.00035713 -0.07082424 -0.02808013
                   Y  0.00088769 -0.00116260  0.00023832  0.05075641  0.02071950
                   Z  0.00009996  0.00034382 -0.00002470  0.00464733  0.00211697
 11   H            X  0.46848766 -0.03803524  0.30421201 -0.00368354 -0.00269950
                   Y  0.57242282 -0.04475443  0.37501662 -0.00504880 -0.00360736
                   Z  0.22041200 -0.01706733  0.14401875 -0.00173707 -0.00116191
 12   H            X -0.48069257  0.12218500  0.78278204  0.00132020 -0.00053728
                   Y  0.09006594 -0.02315773 -0.14903495 -0.00019970  0.00021239
                   Z  0.02065310 -0.00511290 -0.03424161 -0.00037408 -0.00015015
 13   H            X  0.16074273  0.74291475 -0.04688851  0.00400907  0.00811590
                   Y -0.04831708 -0.21854865  0.01417307 -0.00103145 -0.00243621
                   Z  0.04470615  0.20598153 -0.01324805  0.00110990  0.00213637
 14   H            X -0.04145972  0.08328120 -0.01303186  0.00236494  0.00218295
                   Y  0.17078620 -0.36687976  0.05177169 -0.01135011 -0.00958932
                   Z -0.00392466  0.00593774 -0.00076481  0.00082470  0.00046044
 15   H            X  0.05564826  0.17146644 -0.01307910 -0.00140005  0.00759713
                   Y  0.06083255  0.19068763 -0.01460375 -0.00172629  0.00852661
                   Z  0.04780709  0.14803771 -0.01144575 -0.00144383  0.00728438
 16   H            X -0.00529443 -0.01303871  0.00333004 -0.22738047  0.56114049
                   Y  0.00121836  0.00339951 -0.00082794  0.07093304 -0.17504218
                   Z -0.00107453 -0.00326302  0.00044292 -0.04706410  0.11512781
 17   H            X  0.00014201 -0.00611674  0.00039246 -0.16024992  0.40110745
                   Y -0.00002349 -0.00749057  0.00056580 -0.19525287  0.48737720
                   Z -0.00007424 -0.00136563  0.00007493 -0.02340676  0.05824479
 18   H            X  0.06112882  0.09944440 -0.00049451  0.02630871  0.06437522
                   Y -0.00891420 -0.01440081  0.00019081  0.00010782 -0.01025988
                   Z -0.00178211 -0.00273275 -0.00004269 -0.00030950 -0.00412280
 19   H            X -0.00085411 -0.01391110  0.00370536  0.58907082  0.23329581
                   Y  0.00026835  0.00270243 -0.00085433 -0.07630115 -0.02997089
                   Z -0.00075815 -0.00423112  0.00141493  0.17189619  0.06778795
 20   H            X  0.00296366 -0.00424149  0.00115247  0.24975284  0.10077169
                   Y -0.00640058  0.00898088 -0.00204377 -0.51588607 -0.20725501
                   Z -0.00254052  0.00352281 -0.00097031 -0.22768236 -0.09143984

 TRANS. SAYVETZ    X -0.00000004 -0.00000030  0.00000017 -0.00000006 -0.00000011
                   Y  0.00000048 -0.00000013 -0.00000051  0.00000002  0.00000006
                   Z -0.00000102  0.00000006  0.00000013  0.00000004 -0.00000005
               TOTAL  0.00000113  0.00000033  0.00000055  0.00000007  0.00000014

   ROT. SAYVETZ    X  0.00003094 -0.00000632  0.00000030  0.00007450 -0.00000498
                   Y  0.00000932  0.00001232 -0.00000703  0.00005738  0.00011501
                   Z  0.00002163 -0.00000290  0.00000265 -0.00003760  0.00005893
               TOTAL  0.00003889  0.00001414  0.00000751  0.00010127  0.00012932

 REFERENCE ON SAYVETZ CONDITIONS - A. SAYVETZ, J.CHEM.PHYS., 7, 383-389(1939).

 NOTE - THE MODES J,K ARE ORTHONORMALIZED ACCORDING TO
 SUM ON I   M(I) * (X(I,J)*X(I,K) + Y(I,J)*Y(I,K) + Z(I,J)*Z(I,K)) = DELTA(J,K)

  MODE FREQ(CM**-1)  SYMMETRY  RED. MASS  IR INTENS.
     1    1056.832    A        9.329641    0.066728
     2       6.740    A        4.177214    0.012285
     3       5.231    A        4.988900    0.008291
     4       3.962    A        5.296991    0.007641
     5       0.007    A        6.706828    0.000000
     6       0.034    A        6.687465    0.000000
     7       0.105    A        6.751344    0.000006
     8     103.325    A        4.137840    0.029952
     9     203.520    A        3.558242    0.016777
    10     265.628    A        4.167670    0.030568
    11     381.787    A        5.274142    0.035604
    12     437.839    A        2.243078    0.072157
    13     466.613    A        3.512793    0.112327
    14     493.067    A        4.024622    0.078051
    15     507.362    A        4.825781    0.100480
    16     553.256    A        1.960199    0.246719
    17     576.006    A        2.551114    0.270371
    18     611.292    A        4.883569    0.016187
    19     677.401    A        5.701290    0.079041
    20     840.326    A        3.284457    0.031943
    21     851.394    A        4.180701    0.032467
    22     926.771    A        1.667822    2.715057
    23     938.221    A        1.760664    0.123056
    24     963.926    A        1.781038    0.892168
    25    1004.375    A        1.461614    0.146273
    26    1041.187    A        1.598307    0.061859
    27    1093.036    A        1.577860    0.230822
    28    1119.630    A        2.726702    0.001882
    29    1166.728    A        2.147113    0.056840
    30    1209.066    A        1.281959    0.002962
    31    1214.498    A        1.526066    0.093209
    32    1241.864    A        1.132927    0.080413
    33    1270.730    A        1.288747    0.414657
    34    1302.946    A        1.134189    0.242941
    35    1318.707    A        1.220683    0.096529
    36    1342.011    A        1.225534    0.049716
    37    1366.402    A        1.160200    0.009710
    38    1387.595    A        1.276352    0.051502
    39    1418.658    A        1.829970    0.674455
    40    1471.237    A        1.322241    0.087577
    41    1489.045    A        1.667333    0.001779
    42    1599.383    A        1.597033    0.165706
    43    1637.037    A        1.712379    0.166606
    44    1668.158    A        1.525723    0.028108
    45    1718.490    A        2.482900    0.485282
    46    1758.564    A        1.912892    0.034779
    47    1813.794    A        1.255445    0.226125
    48    1856.598    A        2.342067    0.039350
    49    2009.785    A        7.074734    0.063590
    50    2081.021    A       10.652747    1.814582
    51    3629.972    A        1.062671    0.104351
    52    3634.057    A        1.064675    0.071156
    53    3685.654    A        1.091035    0.193112
    54    3692.538    A        1.094093    0.045210
    55    3695.573    A        1.095922    0.148001
    56    3703.914    A        1.091280    0.553543
    57    3712.540    A        1.100166    0.104348
    58    3736.093    A        1.106058    0.067377
    59    3777.059    A        1.116358    0.002857
    60    3779.489    A        1.116701    0.015215

     -------------------------------
     THERMOCHEMISTRY AT T=  298.15 K
     -------------------------------

 USING IDEAL GAS, RIGID ROTOR, HARMONIC NORMAL MODE APPROXIMATIONS.
 P=  1.01325E+05 PASCAL.
 ALL FREQUENCIES ARE SCALED BY   1.00000
 THE MOMENTS OF INERTIA ARE (IN AMU*BOHR**2)
            852.38656          1311.33941          1651.23094
 THE ROTATIONAL SYMMETRY NUMBER IS  1.0
 THE ROTATIONAL CONSTANTS ARE (IN GHZ)
      2.11534     1.37500     1.09197
   1 IMAGINARY FREQUENCY VIBRATION(S) IS(ARE) EXCLUDED
     FROM THE FOLLOWING THERMOCHEMICAL ANALYSIS.
      8 -     60 VIBRATIONAL MODES ARE USED IN THERMOCHEMISTRY.
 THE HARMONIC ZERO POINT ENERGY IS (SCALED BY   1.000)
        0.192380 HARTREE/MOLECULE    42222.582573 CM**-1/MOLECULE 
      120.720543 KCAL/MOL              505.094750 KJ/MOL

               Q               LN Q
 ELEC.     1.00000E+00       0.000000
 TRANS.    6.10192E+07      17.926699
 ROT.      4.86319E+05      13.094620
 VIB.      1.45009E+01       2.674208
 TOT.      4.30310E+14      33.695527

              E         H         G         CV        CP        S
           KJ/MOL    KJ/MOL    KJ/MOL   J/MOL-K   J/MOL-K   J/MOL-K
 ELEC.      0.000     0.000     0.000     0.000     0.000     0.000
 TRANS.     3.718     6.197   -44.439    12.472    20.786   169.836
 ROT.       3.718     3.718   -32.461    12.472    12.472   121.346
 VIB.     516.200   516.200   498.466    92.949    92.949    59.483
 TOTAL    523.637   526.116   421.566   117.892   126.207   350.665
 VIB. THERMAL CORRECTION E(T)-E(0) = H(T)-H(0) =     11105.677 J/MOL

              E         H         G         CV        CP        S
         KCAL/MOL  KCAL/MOL  KCAL/MOL CAL/MOL-K CAL/MOL-K CAL/MOL-K
 ELEC.      0.000     0.000     0.000     0.000     0.000     0.000
 TRANS.     0.889     1.481   -10.621     2.981     4.968    40.592
 ROT.       0.889     0.889    -7.758     2.981     2.981    29.002
 VIB.     123.375   123.375   119.136    22.215    22.215    14.217
 TOTAL    125.152   125.745   100.757    28.177    30.164    83.811
 VIB. THERMAL CORRECTION E(T)-E(0) = H(T)-H(0) =      2654.321 CAL/MOL
 ......END OF NORMAL COORDINATE ANALYSIS......
 STEP CPU TIME =     0.01 TOTAL CPU TIME =         69.5 (      1.2 MIN)
 TOTAL WALL CLOCK TIME=         69.9 SECONDS, CPU UTILIZATION IS    99.43%
               580000  WORDS OF DYNAMIC MEMORY USED
 EXECUTION OF GAMESS TERMINATED NORMALLY Mon Nov 15 03:44:38 2021
 DDI: 263640 bytes (0.3 MB / 0 MWords) used by master data server.

 ----------------------------------------
 CPU timing information for all processes
 ========================================
 0: 68.788 + 0.762 = 69.550
 ----------------------------------------
 ddikick.x: exited gracefully.
----- accounting info -----
Files used on the master node chemcompute-node-0.novalocal were:
-rw-r--r--. 1 chemcomp chemcomp     1545 Nov 15 03:43 /scratch/306639/342653.F05
-rw-rw-r--. 1 chemcomp chemcomp 18001600 Nov 15 03:44 /scratch/306639/342653.F08
-rw-rw-r--. 1 chemcomp chemcomp 85196800 Nov 15 03:44 /scratch/306639/342653.F10
-rw-rw-r--. 1 chemcomp chemcomp   878880 Nov 15 03:44 /scratch/306639/342653.F18
Mon Nov 15 03:44:41 UTC 2021
0.125u 0.090s 1:13.60 0.2%	0+0k 8+216io 0pf+0w
Finishing Up...
Looking for IR data...
Looking for Raman data...
vibramans not found
Looking for thermodynamics data...
Looking for UV-Vis data...
306639
