----- GAMESS execution script 'rungms' -----
This job is running on host chemcompute-node-0.novalocal
under operating system Linux at Mon Nov 15 03:25:32 UTC 2021
SLURM has assigned the following compute nodes to this run:
chemcompute-node-0
Available scratch disk space (Kbyte units) at beginning of the job is
Filesystem     1K-blocks     Used Available Use% Mounted on
/dev/sda1       62903276 17804260  45099016  29% /
GAMESS temporary binary files will be written to /scratch/306632
GAMESS supplementary output files will be written to /data/slurm/342646
Copying input file 342646.inp to your run's scratch directory...
The generated host list is
chemcompute-node-0.novalocal

 Distributed Data Interface kickoff program.
 Initiating 1 compute processes on 1 nodes to run the following command:
 /data/gamess-2019R1-ddi/gamess.00.x 342646 

          ******************************************************
          *         GAMESS VERSION = 30 JUN 2019 (R1)          *
          *             FROM IOWA STATE UNIVERSITY             *
          * M.W.SCHMIDT, K.K.BALDRIDGE, J.A.BOATZ, S.T.ELBERT, *
          *   M.S.GORDON, J.H.JENSEN, S.KOSEKI, N.MATSUNAGA,   *
          *          K.A.NGUYEN, S.J.SU, T.L.WINDUS,           *
          *       TOGETHER WITH M.DUPUIS, J.A.MONTGOMERY       *
          *         J.COMPUT.CHEM.  14, 1347-1363(1993)        *
          **************** 64 BIT LINUX VERSION ****************

  SINCE 1993, STUDENTS AND POSTDOCS WORKING AT IOWA STATE UNIVERSITY
  AND ALSO IN THEIR VARIOUS JOBS AFTER LEAVING ISU HAVE MADE IMPORTANT
  CONTRIBUTIONS TO THE CODE:
     IVANA ADAMOVIC, CHRISTINE AIKENS, YURI ALEXEEV, POOJA ARORA,
     ANDREY ASADCHEV, ROB BELL, PRADIPTA BANDYOPADHYAY, JONATHAN BENTZ,
     COLLEEN BERTONI, BRETT BODE, KURT BRORSEN, CALEB CARLIN, GALINA CHABAN,
     WEI CHEN, CHEOL HO CHOI, PAUL DAY, ALBERT DEFUSCO, NUWAN DESILVA,
     TIM DUDLEY, DMITRI FEDOROV, ALEX FINDLATER, GRAHAM FLETCHER, 
     MARK FREITAG, KURT GLAESEMANN, ANASTASIA GUNINA,
     DAN KEMP, GRANT MERRILL, NORIYUKI MINEZAWA, JONATHAN MULLIN,
     TAKESHI NAGATA, SEAN NEDD, HEATHER NETZLOFF, BOSILJKA NJEGIC, RYAN OLSON,
     MIKE PAK, BUU PHAM,
     SPENCER PRUITT, LUKE ROSKOP, JIM SHOEMAKER, LYUDMILA SLIPCHENKO,
     TONY SMITH, SAROM SOK LEANG, JIE SONG, TETSUYA TAKETSUGU, SIMON WEBB,
     PENG XU, SOOHAENG YOO, FEDERICO ZAHARIEV

  ADDITIONAL CODE HAS BEEN PROVIDED BY COLLABORATORS IN OTHER GROUPS:
     IOWA STATE UNIVERSITY:
          JOE IVANIC, AARON WEST, LAIMUTIS BYTAUTAS, KLAUS RUEDENBERG
     UNIVERSITY OF TOKYO: KIMIHIKO HIRAO, TAKAHITO NAKAJIMA,
          TAKAO TSUNEDA, MUNEAKI KAMIYA, SUSUMU YANAGISAWA,
          KIYOSHI YAGI, MAHITO CHIBA, SEIKEN TOKURA, NAOAKI KAWAKAMI
     UNIVERSITY OF AARHUS: FRANK JENSEN
     UNIVERSITY OF IOWA: VISVALDAS KAIRYS, HUI LI
     NATIONAL INST. OF STANDARDS AND TECHNOLOGY: WALT STEVENS, DAVID GARMER
     UNIVERSITY OF PISA: BENEDETTA MENNUCCI, JACOPO TOMASI
     UNIVERSITY OF MEMPHIS: HENRY KURTZ, PRAKASHAN KORAMBATH
     UNIVERSITY OF ALBERTA: TOBY ZENG, MARIUSZ KLOBUKOWSKI
     UNIVERSITY OF NEW ENGLAND: MARK SPACKMAN
     MIE UNIVERSITY: HIROAKI UMEDA
     NAT. INST. OF ADVANCED INDUSTRIAL SCIENCE AND TECHNOLOGY: KAZUO KITAURA
     MICHIGAN STATE UNIVERSITY:
          KAROL KOWALSKI, MARTA WLOCH, JEFFREY GOUR, JESSE LUTZ,
          WEI LI, JUN SHEN, J. EMILIANO DEUSTUA, PIOTR PIECUCH
     UNIVERSITY OF MINNESOTA:
          YINAN SHU
     UNIVERSITY OF SILESIA: MONIKA MUSIAL, STANISLAW KUCHARSKI
     FACULTES UNIVERSITAIRES NOTRE-DAME DE LA PAIX:
          OLIVIER QUINET, BENOIT CHAMPAGNE
     UNIVERSITY OF CALIFORNIA - SANTA BARBARA: BERNARD KIRTMAN
     INSTITUTE FOR MOLECULAR SCIENCE:
          KAZUYA ISHIMURA, MICHIO KATOUDA, AND SHIGERU NAGASE
     UNIVERSITY OF NOTRE DAME: ANNA POMOGAEVA, DAN CHIPMAN
     KYUSHU UNIVERSITY:
          HARUYUKI NAKANO,
          FENG LONG GU, JACEK KORCHOWIEC, MARCIN MAKOWSKI, AND YURIKO AOKI,
          HIROTOSHI MORI AND EISAKU MIYOSHI
     PENNSYLVANIA STATE UNIVERSITY:
          TZVETELIN IORDANOV, CHET SWALINA, JONATHAN SKONE,
          SHARON HAMMES-SCHIFFER
     WASEDA UNIVERSITY:
          MASATO KOBAYASHI, TOMOKO AKAMA, TSUGUKI TOUMA,
          TAKESHI YOSHIKAWA, YASUHIRO IKABATA, JUNJI SEINO,
          YUYA NAKAJIMA, HIROMI NAKAI
     NANJING UNIVERSITY: SHUHUA LI
     UNIVERSITY OF NEBRASKA:
          PEIFENG SU, DEJUN SI, NANDUN THELLAMUREGE, YALI WANG, HUI LI
     UNIVERSITY OF ZURICH: ROBERTO PEVERATI, KIM BALDRIDGE
     N. COPERNICUS UNIVERSITY AND JACKSON STATE UNIVERSITY:
          MARIA BARYSZ
     UNIVERSITY OF COPENHAGEN: Jimmy Kromann, CASPER STEINMANN
     TOKYO INSTITUTE OF TECHNOLOGY: HIROYA NAKATA
     NAGOYA UNIVERSITY: YOSHIO NISHIMOTO, STEPHAN IRLE
     MOSCOW STATE UNIVERSITY: VLADIMIR MIRONOV
     A.N.NESMEYANOV INSTITUTE OF ORGANOELEMENT COMPOUNDS OF RUSSIAN ACADEMY OF SCIENCES:
          IGOR S. GERASIMOV

 EXECUTION OF GAMESS BEGUN Mon Nov 15 03:25:34 2021

            ECHO OF THE FIRST FEW INPUT CARDS -
 INPUT CARD>!File created by the GAMESS Input Deck Generator Plugin for Avogadro            
 INPUT CARD> $BASIS GBASIS=STO NGAUSS=3 $END                                                
 INPUT CARD> $CONTRL SCFTYP=RHF RUNTYP=SADPOINT NZVAR=1 mult=1  ICHARG=0 $END               
 INPUT CARD> $STATPT hssend=.t. OPTTOL=0.0005 NSTEP=50 $END                                 
 INPUT CARD> $STATPT HESS=calc ihrep=5 $END                                                 
 INPUT CARD> $FORCE nvib=2 $END                                                             
 INPUT CARD> $ZMAT DLC=.t. auto=.t. nonvdw(1)=4,10,7,8 $END                                 
 INPUT CARD> $ZMAT IFZMAT(1)=1,4,10,1,7,8 fvalue(1)=2.00,2.00 $END                          
 INPUT CARD>                                                                                
 INPUT CARD> $DATA                                                                          
 INPUT CARD>Title                                                                           
 INPUT CARD>C1                                                                              
 INPUT CARD>C     6.0     0.91514     0.99101     0.23431                                   
 INPUT CARD>C     6.0     1.41730    -0.19367    -0.14280                                   
 INPUT CARD>C     6.0    -1.34604     0.42861    -0.32826                                   
 INPUT CARD>C     6.0    -0.53519     1.22368     0.41989                                   
 INPUT CARD>C     6.0     0.48313    -1.32239    -0.39007                                   
 INPUT CARD>O     8.0     0.93405    -2.44767    -0.59518                                   
 INPUT CARD>C     6.0    -1.00806    -1.03640    -0.33234                                   
 INPUT CARD>C     6.0    -1.55759    -1.63140     1.49450                                   
 INPUT CARD>C     6.0    -1.85226    -0.37054     2.26176                                   
 INPUT CARD>C     6.0    -0.94098     0.63517     2.29058                                   
 INPUT CARD>H     1.0     1.57250     1.83802     0.41175                                   
 INPUT CARD>H     1.0     2.47457    -0.38011    -0.27279                                   
 INPUT CARD>H     1.0    -2.36989     0.72446    -0.53518                                   
 INPUT CARD>H     1.0    -0.82626     2.27039     0.56459                                   
 INPUT CARD>H     1.0    -1.58125    -1.64404    -1.03588                                   
 INPUT CARD>H     1.0    -0.73317    -2.23354     1.88284                                   
 INPUT CARD>H     1.0    -2.45839    -2.22015     1.30059                                   
 INPUT CARD>H     1.0    -2.89184    -0.16460     2.50394                                   
 INPUT CARD>H     1.0     0.10581     0.32402     2.38049                                   
 INPUT CARD>H     1.0    -1.22209     1.56959     2.78257                                   
 INPUT CARD> $END                                                                           
    1000000 WORDS OF MEMORY AVAILABLE

     BASIS OPTIONS
     -------------
     GBASIS=STO          IGAUSS=       3      POLAR=NONE    
     NDFUNC=       0     NFFUNC=       0     DIFFSP=       F
     NPFUNC=       0      DIFFS=       F     BASNAM=        


     RUN TITLE
     ---------
 Title                                                                           

 THE POINT GROUP OF THE MOLECULE IS C1      
 THE ORDER OF THE PRINCIPAL AXIS IS     0

 ATOM      ATOMIC                      COORDINATES (BOHR)
           CHARGE         X                   Y                   Z
 C           6.0     1.7293638404        1.8727373511        0.4427816962
 C           6.0     2.6783086424       -0.3659832320       -0.2698528710
 C           6.0    -2.5436467685        0.8099554556       -0.6203214527
 C           6.0    -1.0113624514        2.3124198967        0.7934770450
 C           6.0     0.9129833164       -2.4989547489       -0.7371254160
 O           8.0     1.7650985588       -4.6254256084       -1.1247271134
 C           6.0    -1.9049571792       -1.9585120137       -0.6280315348
 C           6.0    -2.9434183012       -3.0828989764        2.8241954887
 C           6.0    -3.5002638580       -0.7002190675        4.2741066500
 C           6.0    -1.7781943599        1.2002972556        4.3285685530
 H           1.0     2.9715941157        3.4733541600        0.7780946754
 H           1.0     4.6762592374       -0.7183037452       -0.5154983522
 H           1.0    -4.4784427210        1.3690308891       -1.0113435541
 H           1.0    -1.5614049946        4.2904149853        1.0669203954
 H           1.0    -2.9881292181       -3.1067851129       -1.9575293562
 H           1.0    -1.3854904024       -4.2207785826        3.5580516787
 H           1.0    -4.6456834710       -4.1954751516        2.4577587224
 H           1.0    -5.4647852003       -0.3110488976        4.7317604897
 H           1.0     0.1999519068        0.6123090145        4.4984738165
 H           1.0    -2.3094152323        2.9660950131        5.2582948417

          INTERNUCLEAR DISTANCES (ANGS.)
          ------------------------------

                1 C          2 C          3 C          4 C          5 C     

   1 C       0.0000000    1.3408368 *  2.3970219 *  1.4805514 *  2.4348106 *
   2 C       1.3408368 *  0.0000000    2.8386045 *  2.4774419 *  1.4858751 *
   3 C       2.3970219 *  2.8386045 *  0.0000000    1.3599053 *  2.5329201 *
   4 C       1.4805514 *  2.4774419 *  1.3599053 *  0.0000000    2.8592802 *
   5 C       2.4348106 *  1.4858751 *  2.5329201 *  2.8592802 *  0.0000000  
   6 O       3.5373622    2.3491901 *  3.6800874    4.0826271    1.2294934 *
   7 C       2.8513474 *  2.5745855 *  1.5034964 *  2.4284599 *  1.5194639 *
   8 C       3.8183120    3.6875180    2.7587767 *  3.2173856    2.7949292 *
   9 C       3.6909179    4.0624148    2.7573725 *  2.7692410 *  3.6595447  
  10 C       2.7928569 *  3.4885238    2.6580187 *  2.0026209 *  3.6119268  
  11 H       1.0867535 *  2.1117237 *  3.3244439    2.1954127 *  3.4377076  
  12 H       2.1375085 *  1.0814237 *  3.9056582    3.4800292    2.2062365 *
  13 H       3.3844624    3.9165971    1.0856390 *  2.1277931 *  3.5143100  
  14 H       2.1859488 *  3.4066925    2.1117542 *  1.0960208 *  3.9413127  
  15 H       3.8456253    3.4485457    2.2027092 *  3.3819116    2.1868228 *
  16 H       3.9789822    3.5900986    3.5144865    3.7592272    2.7341726 *
  17 H       4.7779919    4.6055368    3.3024846    4.0415710    3.5095362  
  18 H       4.5803659    5.0571499    3.2806634    3.4386603    4.5941478  
  19 H       2.3887192 *  2.8905019 *  3.0750828    2.2503825 *  3.2448481  
  20 H       3.3758163    4.3166254    3.3157898    2.4847016 *  4.6191956  

                6 O          7 C          8 C          9 C         10 C     

   1 C       3.5373622    2.8513474 *  3.8183120    3.6909179    2.7928569 *
   2 C       2.3491901 *  2.5745855 *  3.6875180    4.0624148    3.4885238  
   3 C       3.6800874    1.5034964 *  2.7587767 *  2.7573725 *  2.6580187 *
   4 C       4.0826271    2.4284599 *  3.2173856    2.7692410 *  2.0026209 *
   5 C       1.2294934 *  1.5194639 *  2.7949292 *  3.6595447    3.6119268  
   6 O       0.0000000    2.4150692 *  3.3528091    4.4988997    4.6203085  
   7 C       2.4150692 *  0.0000000    1.9983375 *  2.8080951 *  3.1110055  
   8 C       3.3528091    1.9983375 *  0.0000000    1.5050868 *  2.4801796 *
   9 C       4.4988997    2.8080951 *  1.5050868 *  0.0000000    1.3574662 *
  10 C       4.6203085    3.1110055    2.4801796 *  1.3574662 *  0.0000000  
  11 H       4.4484453    3.9338595    4.7965285    4.4754056    3.3607190  
  12 H       2.5984498 *  3.5444287    4.5768280    5.0145282    4.3894921  
  13 H       4.5806144    2.2352523 *  3.2139553    3.0479237    3.1677557  
  14 H       5.1675766    3.4310924    4.0771977    3.3026615    2.3803669 *
  15 H       2.6770827 *  1.0921271 *  2.5305222 *  3.5453742    4.0829009  
  16 H       2.9943375 *  2.5329294 *  1.0922678 *  2.2060625 *  2.9049843 *
  17 H       3.8928599    2.4841863 *  1.0934662 *  2.1707829 *  3.3816365  
  18 H       5.4271897    3.5147043    2.2250156 *  1.0871012 *  2.1192002 *
  19 H       4.1500432    3.2327845    2.7157955 *  2.0809970 *  1.0957497 *
  20 H       5.6741971    4.0668977    3.4667018    2.1053412 *  1.0928027 *

               11 H         12 H         13 H         14 H         15 H     

   1 C       1.0867535 *  2.1375085 *  3.3844624    2.1859488 *  3.8456253  
   2 C       2.1117237 *  1.0814237 *  3.9165971    3.4066925    3.4485457  
   3 C       3.3244439    3.9056582    1.0856390 *  2.1117542 *  2.2027092 *
   4 C       2.1954127 *  3.4800292    2.1277931 *  1.0960208 *  3.3819116  
   5 C       3.4377076    2.2062365 *  3.5143100    3.9413127    2.1868228 *
   6 O       4.4484453    2.5984498 *  4.5806144    5.1675766    2.6770827 *
   7 C       3.9338595    3.5444287    2.2352523 *  3.4310924    1.0921271 *
   8 C       4.7965285    4.5768280    3.2139553    4.0771977    2.5305222 *
   9 C       4.4754056    5.0145282    3.0479237    3.3026615    3.5453742  
  10 C       3.3607190    4.3894921    3.1677557    2.3803669 *  4.0829009  
  11 H       0.0000000    2.4904670 *  4.2046559    2.4422026 *  4.9159448  
  12 H       2.4904670 *  0.0000000    4.9757126    4.3153023    4.3161906  
  13 H       4.2046559    4.9757126    0.0000000    2.4458510 *  2.5460648 *
  14 H       2.4422026 *  4.3153023    2.4458510 *  0.0000000    4.2958441  
  15 H       4.9159448    4.3161906    2.5460648 *  4.2958441    0.0000000  
  16 H       4.9048772    4.2862034    4.1563731    4.6938081    3.0960743  
  17 H       5.7885106    5.4950310    3.4711110    4.8343039    2.5613218 *
  18 H       5.3214732    6.0460756    3.2092226    3.7358902    4.0542218  
  19 H       2.8843219 *  3.6258403    3.8458516    2.8203907 *  4.2884747  
  20 H       3.6745851    5.1770503    3.6109770    2.3594994 *  5.0036960  

               16 H         17 H         18 H         19 H         20 H     

   1 C       3.9789822    4.7779919    4.5803659    2.3887192 *  3.3758163  
   2 C       3.5900986    4.6055368    5.0571499    2.8905019 *  4.3166254  
   3 C       3.5144865    3.3024846    3.2806634    3.0750828    3.3157898  
   4 C       3.7592272    4.0415710    3.4386603    2.2503825 *  2.4847016 *
   5 C       2.7341726 *  3.5095362    4.5941478    3.2448481    4.6191956  
   6 O       2.9943375 *  3.8928599    5.4271897    4.1500432    5.6741971  
   7 C       2.5329294 *  2.4841863 *  3.5147043    3.2327845    4.0668977  
   8 C       1.0922678 *  1.0934662 *  2.2250156 *  2.7157955 *  3.4667018  
   9 C       2.2060625 *  2.1707829 *  1.0871012 *  2.0809970 *  2.1053412 *
  10 C       2.9049843 *  3.3816365    2.1192002 *  1.0957497 *  1.0928027 *
  11 H       4.9048772    5.7885106    5.3214732    2.8843219 *  3.6745851  
  12 H       4.2862034    5.4950310    6.0460756    3.6258403    5.1770503  
  13 H       4.1563731    3.4711110    3.2092226    3.8458516    3.6109770  
  14 H       4.6938081    4.8343039    3.7358902    2.8203907 *  2.3594994 *
  15 H       3.0960743    2.5613218 *  4.0542218    4.2884747    5.0036960  
  16 H       0.0000000    1.8208730 *  3.0538720    2.7372717 *  3.9385727  
  17 H       1.8208730 *  0.0000000    2.4209948 *  3.7701600    4.2528616  
  18 H       3.0538720    2.4209948 *  0.0000000    3.0397195    2.4234510 *
  19 H       2.7372717 *  3.7701600    3.0397195    0.0000000    1.8645191 *
  20 H       3.9385727    4.2528616    2.4234510 *  1.8645191 *  0.0000000  

  * ... LESS THAN  3.000


     ATOMIC BASIS SET
     ----------------
 THE CONTRACTED PRIMITIVE FUNCTIONS HAVE BEEN UNNORMALIZED
 THE CONTRACTED BASIS FUNCTIONS ARE NOW NORMALIZED TO UNITY

  SHELL TYPE  PRIMITIVE        EXPONENT          CONTRACTION COEFFICIENT(S)

 C         

      1   S       1            71.6168373    0.154328967295
      1   S       2            13.0450963    0.535328142282
      1   S       3             3.5305122    0.444634542185

      2   L       4             2.9412494   -0.099967229187    0.155916274999
      2   L       5             0.6834831    0.399512826089    0.607683718598
      2   L       6             0.2222899    0.700115468880    0.391957393099

 C         

      3   S       7            71.6168373    0.154328967295
      3   S       8            13.0450963    0.535328142282
      3   S       9             3.5305122    0.444634542185

      4   L      10             2.9412494   -0.099967229187    0.155916274999
      4   L      11             0.6834831    0.399512826089    0.607683718598
      4   L      12             0.2222899    0.700115468880    0.391957393099

 C         

      5   S      13            71.6168373    0.154328967295
      5   S      14            13.0450963    0.535328142282
      5   S      15             3.5305122    0.444634542185

      6   L      16             2.9412494   -0.099967229187    0.155916274999
      6   L      17             0.6834831    0.399512826089    0.607683718598
      6   L      18             0.2222899    0.700115468880    0.391957393099

 C         

      7   S      19            71.6168373    0.154328967295
      7   S      20            13.0450963    0.535328142282
      7   S      21             3.5305122    0.444634542185

      8   L      22             2.9412494   -0.099967229187    0.155916274999
      8   L      23             0.6834831    0.399512826089    0.607683718598
      8   L      24             0.2222899    0.700115468880    0.391957393099

 C         

      9   S      25            71.6168373    0.154328967295
      9   S      26            13.0450963    0.535328142282
      9   S      27             3.5305122    0.444634542185

     10   L      28             2.9412494   -0.099967229187    0.155916274999
     10   L      29             0.6834831    0.399512826089    0.607683718598
     10   L      30             0.2222899    0.700115468880    0.391957393099

 O         

     11   S      31           130.7093214    0.154328967295
     11   S      32            23.8088661    0.535328142282
     11   S      33             6.4436083    0.444634542185

     12   L      34             5.0331513   -0.099967229187    0.155916274999
     12   L      35             1.1695961    0.399512826089    0.607683718598
     12   L      36             0.3803890    0.700115468880    0.391957393099

 C         

     13   S      37            71.6168373    0.154328967295
     13   S      38            13.0450963    0.535328142282
     13   S      39             3.5305122    0.444634542185

     14   L      40             2.9412494   -0.099967229187    0.155916274999
     14   L      41             0.6834831    0.399512826089    0.607683718598
     14   L      42             0.2222899    0.700115468880    0.391957393099

 C         

     15   S      43            71.6168373    0.154328967295
     15   S      44            13.0450963    0.535328142282
     15   S      45             3.5305122    0.444634542185

     16   L      46             2.9412494   -0.099967229187    0.155916274999
     16   L      47             0.6834831    0.399512826089    0.607683718598
     16   L      48             0.2222899    0.700115468880    0.391957393099

 C         

     17   S      49            71.6168373    0.154328967295
     17   S      50            13.0450963    0.535328142282
     17   S      51             3.5305122    0.444634542185

     18   L      52             2.9412494   -0.099967229187    0.155916274999
     18   L      53             0.6834831    0.399512826089    0.607683718598
     18   L      54             0.2222899    0.700115468880    0.391957393099

 C         

     19   S      55            71.6168373    0.154328967295
     19   S      56            13.0450963    0.535328142282
     19   S      57             3.5305122    0.444634542185

     20   L      58             2.9412494   -0.099967229187    0.155916274999
     20   L      59             0.6834831    0.399512826089    0.607683718598
     20   L      60             0.2222899    0.700115468880    0.391957393099

 H         

     21   S      61             3.4252509    0.154328967295
     21   S      62             0.6239137    0.535328142282
     21   S      63             0.1688554    0.444634542185

 H         

     22   S      64             3.4252509    0.154328967295
     22   S      65             0.6239137    0.535328142282
     22   S      66             0.1688554    0.444634542185

 H         

     23   S      67             3.4252509    0.154328967295
     23   S      68             0.6239137    0.535328142282
     23   S      69             0.1688554    0.444634542185

 H         

     24   S      70             3.4252509    0.154328967295
     24   S      71             0.6239137    0.535328142282
     24   S      72             0.1688554    0.444634542185

 H         

     25   S      73             3.4252509    0.154328967295
     25   S      74             0.6239137    0.535328142282
     25   S      75             0.1688554    0.444634542185

 H         

     26   S      76             3.4252509    0.154328967295
     26   S      77             0.6239137    0.535328142282
     26   S      78             0.1688554    0.444634542185

 H         

     27   S      79             3.4252509    0.154328967295
     27   S      80             0.6239137    0.535328142282
     27   S      81             0.1688554    0.444634542185

 H         

     28   S      82             3.4252509    0.154328967295
     28   S      83             0.6239137    0.535328142282
     28   S      84             0.1688554    0.444634542185

 H         

     29   S      85             3.4252509    0.154328967295
     29   S      86             0.6239137    0.535328142282
     29   S      87             0.1688554    0.444634542185

 H         

     30   S      88             3.4252509    0.154328967295
     30   S      89             0.6239137    0.535328142282
     30   S      90             0.1688554    0.444634542185

 TOTAL NUMBER OF BASIS SET SHELLS             =   30
 NUMBER OF CARTESIAN GAUSSIAN BASIS FUNCTIONS =   60
 NUMBER OF ELECTRONS                          =   72
 CHARGE OF MOLECULE                           =    0
 SPIN MULTIPLICITY                            =    1
 NUMBER OF OCCUPIED ORBITALS (ALPHA)          =   36
 NUMBER OF OCCUPIED ORBITALS (BETA )          =   36
 TOTAL NUMBER OF ATOMS                        =   20
 THE NUCLEAR REPULSION ENERGY IS      505.5772252883

     $CONTRL OPTIONS
     ---------------
 SCFTYP=RHF          RUNTYP=SADPOINT     EXETYP=RUN     
 MPLEVL=       0     CITYP =NONE         CCTYP =NONE         VBTYP =NONE    
 DFTTYP=NONE         TDDFT =NONE    
 MULT  =       1     ICHARG=       0     NZVAR =       1     COORD =UNIQUE  
 PP    =NONE         RELWFN=NONE         LOCAL =NONE         NUMGRD=       F
 ISPHER=      -1     NOSYM =       0     MAXIT =      30     UNITS =ANGS    
 PLTORB=       F     MOLPLT=       F     AIMPAC=       F     FRIEND=        
 NPRINT=       7     IREST =       0     GEOM  =INPUT   
 NORMF =       0     NORMP =       0     ITOL  =      20     ICUT  =       9
 INTTYP=BEST         GRDTYP=BEST         QMTTOL= 1.0E-06

     $SYSTEM OPTIONS
     ---------------
  REPLICATED MEMORY=     1000000 WORDS (ON EVERY NODE).
 DISTRIBUTED MEMDDI=           0 MILLION WORDS IN AGGREGATE,
 MEMDDI DISTRIBUTED OVER   1 PROCESSORS IS           0 WORDS/PROCESSOR.
 TOTAL MEMORY REQUESTED ON EACH PROCESSOR=     1000000 WORDS.
 TIMLIM=      525600.00 MINUTES, OR     365.0 DAYS.
 PARALL= F  BALTYP=  DLB     KDIAG=    0  COREFL= F
 MXSEQ2=     300 MXSEQ3=     150  mem10=         0

          ----------------
          PROPERTIES INPUT
          ----------------

     MOMENTS            FIELD           POTENTIAL          DENSITY
 IEMOM =       1   IEFLD =       0   IEPOT =       0   IEDEN =       0
 WHERE =COMASS     WHERE =NUCLEI     WHERE =NUCLEI     WHERE =NUCLEI  
 OUTPUT=BOTH       OUTPUT=BOTH       OUTPUT=BOTH       OUTPUT=BOTH    
 IEMINT=       0   IEFINT=       0                     IEDINT=       0
                                                       MORB  =       0
          EXTRAPOLATION IN EFFECT
          SOSCF IN EFFECT
 ORBITAL PRINTING OPTION: NPREO=     1    60     2     1

     -------------------------------
     INTEGRAL TRANSFORMATION OPTIONS
     -------------------------------
     NWORD  =            0
     CUTOFF = 1.0E-09     MPTRAN =       0
     DIRTRF =       F     AOINTS =DUP     

          ----------------------
          INTEGRAL INPUT OPTIONS
          ----------------------
 NOPK  =       1 NORDER=       0 SCHWRZ=       T


 -----------------------------------------------
  STATISTICS ON AUTOMATIC COORDINATE GENERATION 
 -----------------------------------------------
  NUMBER OF USER SPECIFIED BONDS                             2
  NUMBER OF BONDS                                           21
  NUMBER OF ANGLES                                          39
  NUMBER OF TORSIONS                                        62
  NUMBER OF EXTRA COORD.                                     0
  NUMBER OF EXTRA COORD. FOR CONSTRAINTS                     0
  NUMBER OF CONSTRAINED COORD.                               2

  TOTAL NUMBER OF PRIMITIVES                               122
 -----------------------------------------------

   --- ENCODED Z MATRIX ---
 COORD  TYPE   I   J   K   L   M   N
    1      1    4  10
    2      1    7   8
    3      1    1  11
    4      1    1   4
    5      1    1   2
    6      1    2  12
    7      1    2   5
    8      1    3   4
    9      1    3  13
   10      1    3   7
   11      1    4  14
   12      1    5   7
   13      1    5   6
   14      1    7  15
   15      1    8  16
   16      1    8   9
   17      1    8  17
   18      1    9  10
   19      1    9  18
   20      1   10  20
   21      1   10  19
   22      2    1   4  10
   23      2    1   4   3
   24      2    1   2   5
   25      2    1   2  12
   26      2    1   4  14
   27      2    2   5   6
   28      2    2   5   7
   29      2    2   1  11
   30      2    2   1   4
   31      2    3   4  14
   32      2    3   7  15
   33      2    3   4  10
   34      2    3   7   8
   35      2    3   7   5
   36      2    4   3   7
   37      2    4   3  13
   38      2    4  10  19
   39      2    4  10  20
   40      2    4  10   9
   41      2    4   1  11
   42      2    5   7   8
   43      2    5   7  15
   44      2    5   2  12
   45      2    6   5   7
   46      2    7   8  17
   47      2    7   8   9
   48      2    7   8  16
   49      2    7   3  13
   50      2    8   7  15
   51      2    8   9  18
   52      2    8   9  10
   53      2    9   8  16
   54      2    9  10  19
   55      2    9  10  20
   56      2    9   8  17
   57      2   10   4  14
   58      2   10   9  18
   59      2   16   8  17
   60      2   19  10  20
   61      3    1   4  10   9
   62      3    1   2   5   6
   63      3    1   2   5   7
   64      3    1   4  10  19
   65      3    1   4   3   7
   66      3    1   4   3  13
   67      3    1   4  10  20
   68      3    2   1   4   3
   69      3    2   5   7   8
   70      3    2   5   7  15
   71      3    2   1   4  10
   72      3    2   1   4  14
   73      3    2   5   7   3
   74      3    3   4   1  11
   75      3    3   7   5   6
   76      3    3   7   8  17
   77      3    3   7   8   9
   78      3    3   7   8  16
   79      3    3   4  10  19
   80      3    3   4  10  20
   81      3    3   4  10   9
   82      3    4   1   2  12
   83      3    4   3   7   5
   84      3    4   1   2   5
   85      3    4   3   7   8
   86      3    4  10   9  18
   87      3    4  10   9   8
   88      3    4   3   7  15
   89      3    5   7   3  13
   90      3    5   2   1  11
   91      3    5   7   8  17
   92      3    5   7   8   9
   93      3    5   7   8  16
   94      3    6   5   7  15
   95      3    6   5   2  12
   96      3    6   5   7   8
   97      3    7   8   9  18
   98      3    7   8   9  10
   99      3    7   5   2  12
  100      3    7   3   4  10
  101      3    7   3   4  14
  102      3    8   9  10  19
  103      3    8   9  10  20
  104      3    8   7   3  13
  105      3    9   8   7  15
  106      3    9  10   4  14
  107      3   10   4   1  11
  108      3   10   9   8  17
  109      3   10   9   8  16
  110      3   10   4   3  13
  111      3   11   1   2  12
  112      3   11   1   4  14
  113      3   13   3   7  15
  114      3   13   3   4  14
  115      3   14   4  10  19
  116      3   14   4  10  20
  117      3   15   7   8  16
  118      3   15   7   8  17
  119      3   16   8   9  18
  120      3   17   8   9  18
  121      3   18   9  10  20
  122      3   18   9  10  19

          INDEP./SYM. INTERNAL COORDINATES
          --------------------------------
 CRD  1=   1.0000 (  1)
 CRD  2=   1.0000 (  2)
 CRD  3=   0.2906 (  4)  0.2411 (  5) -0.1572 (  7) -0.2960 ( 12) -0.1179 ( 17)
           0.1196 ( 20) -0.1524 ( 23)  0.1795 ( 25)  0.1494 ( 26)  0.1428 ( 27)
           0.1086 ( 33) -0.1168 ( 34)  0.1555 ( 35)  0.1415 ( 39) -0.1097 ( 40)
           0.1087 ( 41) -0.1409 ( 43) -0.1837 ( 44) -0.1604 ( 45) -0.1246 ( 46)
           0.1358 ( 47)  0.1352 ( 50) -0.1292 ( 57)  0.1081 ( 58)  0.1711 ( 61)
           0.1353 ( 64)  0.1322 ( 67) -0.1084 ( 85) -0.1065 ( 87)  0.1355 ( 91)
           0.1907 ( 92)  0.1160 ( 93) -0.1085 (100) -0.1114 (104) -0.1094 (110)
 CRD  4=   0.1028 (  4) -0.1802 (  5) -0.2413 (  7)  0.1604 ( 12) -0.1530 ( 16)
          -0.2088 ( 18)  0.1168 ( 19) -0.2071 ( 27) -0.1584 ( 29)  0.1471 ( 30)
          -0.2217 ( 36) -0.1121 ( 38)  0.1937 ( 40)  0.1536 ( 45)  0.2622 ( 47)
          -0.1373 ( 48)  0.1187 ( 49)  0.2008 ( 51) -0.3444 ( 52) -0.1091 ( 53)
           0.1431 ( 58) -0.1114 ( 64) -0.1007 ( 79) -0.1050 ( 86)
 CRD  5=   0.1359 (  5) -0.1137 (  8)  0.1380 ( 10)  0.1093 ( 12)  0.1117 ( 15)
           0.1980 ( 16) -0.1865 ( 18) -0.1063 ( 37) -0.1415 ( 38) -0.1715 ( 39)
           0.1629 ( 46)  0.1144 ( 50)  0.1088 ( 55) -0.1229 ( 56) -0.1138 ( 57)
          -0.1127 ( 62) -0.1454 ( 63) -0.1071 ( 65)  0.2126 ( 68)  0.1943 ( 69)
           0.1820 ( 71)  0.2089 ( 73)  0.1759 ( 74)  0.1733 ( 75) -0.1068 ( 82)
          -0.1000 ( 83)  0.1587 ( 96) -0.1311 ( 99) -0.1703 (103)  0.1453 (107)
          -0.1338 (108)  0.1018 (113)  0.1082 (114) -0.1644 (120) -0.1726 (121)
 CRD  6=  -0.2562 (  4) -0.1034 (  5) -0.1532 (  8) -0.2841 ( 12) -0.1036 ( 14)
          -0.3166 ( 16) -0.1496 ( 17) -0.3174 ( 18) -0.1470 ( 20)  0.1729 ( 27)
           0.1113 ( 29)  0.1466 ( 38) -0.1993 ( 39) -0.1410 ( 41) -0.1944 ( 45)
          -0.1511 ( 46)  0.1612 ( 48)  0.1793 ( 86)  0.1734 ( 87) -0.1778 ( 97)
          -0.1804 ( 98)
 CRD  7=   0.1738 (  5)  0.1999 (  6)  0.4374 (  7) -0.1302 ( 10) -0.1008 ( 16)
          -0.1041 ( 18) -0.1809 ( 24)  0.3609 ( 27)  0.1175 ( 29)  0.1190 ( 39)
          -0.1535 ( 41)  0.2695 ( 44) -0.3828 ( 45)  0.1215 ( 46) -0.1017 ( 49)
          -0.1451 ( 55) -0.1084 ( 56)  0.1059 ( 98)
 CRD  8=  -0.1335 (  3) -0.2383 (  4)  0.1326 (  5) -0.3210 (  8)  0.2376 ( 10)
           0.1298 ( 12)  0.1911 ( 13) -0.1801 ( 28)  0.1346 ( 29)  0.1415 ( 30)
          -0.3450 ( 37) -0.2762 ( 41)  0.1121 ( 45) -0.1171 ( 48)  0.3153 ( 49)
          -0.1420 ( 51)  0.1579 ( 58)  0.1360 ( 66) -0.1030 ( 68) -0.1165 ( 74)
           0.1144 ( 92)
 CRD  9=  -0.2997 (  4) -0.2530 (  5) -0.2146 (  6)  0.1228 (  8) -0.2999 ( 12)
           0.1171 ( 15)  0.1992 ( 16)  0.1300 ( 18)  0.1214 ( 24) -0.1594 ( 25)
           0.1321 ( 27)  0.1232 ( 33)  0.1149 ( 38)  0.1273 ( 48)  0.1390 ( 50)
          -0.1057 ( 53)  0.1198 ( 65)  0.1410 ( 66)  0.1279 ( 75) -0.1470 ( 83)
          -0.1503 ( 85) -0.1770 ( 89)  0.1204 (100) -0.1040 (102) -0.1802 (104)
          -0.1182 (108)  0.1415 (110)  0.1113 (119) -0.1344 (122)
 CRD 10=  -0.1249 (  3) -0.3243 (  5)  0.1812 (  7)  0.1045 ( 16)  0.1007 ( 18)
          -0.3923 ( 25)  0.1616 ( 27) -0.3694 ( 29)  0.1251 ( 30)  0.2444 ( 41)
           0.4007 ( 44)  0.1311 ( 55)  0.1014 ( 58) -0.1114 (100)
 CRD 11=  -0.1067 (  5) -0.1213 (  6) -0.1051 (  9) -0.1934 ( 10) -0.4669 ( 16)
          -0.1668 ( 19)  0.1240 ( 24) -0.1173 ( 25)  0.1666 ( 41)  0.1615 ( 45)
           0.1825 ( 46) -0.1188 ( 49) -0.3624 ( 51)  0.1317 ( 52) -0.2172 ( 56)
           0.2338 ( 58)  0.1003 ( 69) -0.1362 ( 76) -0.1774 ( 91) -0.1338 (108)
 CRD 12=   0.1021 (  4)  0.1573 (  5)  0.1940 (  6)  0.2752 (  8)  0.2954 (  9)
           0.2031 ( 10)  0.1816 ( 12)  0.1155 ( 14) -0.1119 ( 16)  0.2444 ( 18)
           0.1203 ( 21) -0.1336 ( 24)  0.1001 ( 25) -0.1652 ( 36)  0.1059 ( 37)
           0.2191 ( 38) -0.1265 ( 40) -0.1559 ( 41)  0.2029 ( 48) -0.2414 ( 51)
          -0.1524 ( 53)  0.1666 ( 55)  0.2172 ( 58)  0.1368 ( 86)  0.1193 ( 87)
          -0.1344 ( 98)  0.1003 (119)
 CRD 13=  -0.1751 (  4) -0.1472 (  9) -0.2195 ( 10) -0.1096 ( 13)  0.3989 ( 18)
           0.2123 ( 19)  0.1029 ( 25)  0.1303 ( 29)  0.1052 ( 31)  0.1229 ( 37)
          -0.1714 ( 38) -0.1573 ( 39) -0.1746 ( 41) -0.1693 ( 48) -0.1569 ( 49)
          -0.1492 ( 51) -0.1600 ( 52)  0.1486 ( 55)  0.2957 ( 58) -0.1364 ( 67)
          -0.1341 ( 80)  0.1027 ( 97) -0.1913 (103) -0.1179 (121)  0.1319 (122)
 CRD 14=  -0.2164 (  3) -0.1275 (  5)  0.2062 (  6) -0.1508 (  7) -0.3045 (  8)
          -0.3106 ( 10) -0.1771 ( 11) -0.2244 ( 13) -0.1341 ( 14) -0.2952 ( 24)
           0.1450 ( 25) -0.1215 ( 27)  0.1557 ( 28) -0.1006 ( 29)  0.1556 ( 30)
          -0.1587 ( 31) -0.1453 ( 32)  0.1309 ( 33)  0.1248 ( 34)  0.1154 ( 38)
          -0.1184 ( 40)  0.1505 ( 44) -0.1238 ( 47)
 CRD 15=  -0.1457 (  4)  0.1062 (  7)  0.2057 (  8) -0.1782 ( 10) -0.1623 ( 11)
           0.1283 ( 12)  0.2102 ( 14)  0.1138 ( 16) -0.1397 ( 17) -0.1414 ( 18)
          -0.1156 ( 21) -0.1479 ( 26) -0.1472 ( 27)  0.1729 ( 29)  0.1701 ( 38)
          -0.1094 ( 41)  0.1624 ( 43)  0.1054 ( 45) -0.1460 ( 48)  0.1977 ( 53)
          -0.1757 ( 54) -0.1209 ( 64)  0.1411 ( 77)  0.1024 ( 81) -0.1014 ( 88)
          -0.1256 ( 93) -0.1049 ( 97) -0.1058 ( 98) -0.2109 (102)  0.1542 (105)
           0.1301 (106) -0.1880 (109) -0.1106 (113) -0.1871 (119) -0.2046 (122)
 CRD 16=  -0.1213 (  3)  0.2722 ( 11)  0.1034 ( 12)  0.2355 ( 13) -0.3163 ( 14)
           0.1216 ( 15) -0.1716 ( 28)  0.1014 ( 30) -0.1827 ( 32)  0.1577 ( 35)
           0.2635 ( 37)  0.1194 ( 38) -0.1418 ( 39)  0.1275 ( 46) -0.2264 ( 49)
           0.1584 ( 53) -0.1560 ( 54) -0.1003 ( 56)  0.1018 ( 61) -0.1443 ( 69)
          -0.1425 ( 70) -0.1237 ( 71) -0.1445 ( 76) -0.1653 ( 78) -0.1415 ( 79)
          -0.1145 ( 89)  0.1409 ( 92)  0.1041 (105) -0.1054 (107)
 CRD 17=  -0.3066 (  3)  0.1640 (  6)  0.1349 (  8)  0.1704 ( 11) -0.2172 ( 13)
          -0.1080 ( 15)  0.1171 ( 17) -0.1045 ( 18) -0.3413 ( 19)  0.1321 ( 20)
          -0.1804 ( 21) -0.1065 ( 23) -0.1216 ( 24)  0.1126 ( 28)  0.1463 ( 30)
           0.1285 ( 31) -0.1190 ( 38) -0.1031 ( 41)  0.1010 ( 46)  0.1511 ( 52)
           0.1756 ( 61)  0.1165 ( 62)  0.1101 ( 63) -0.1036 ( 90) -0.1107 ( 92)
           0.1296 (102) -0.1119 (105)  0.1765 (106) -0.1082 (109)
 CRD 18=  -0.1352 (  3) -0.1038 (  4)  0.1101 ( 11)  0.1004 ( 13) -0.1534 ( 14)
          -0.1410 ( 17) -0.1493 ( 38)  0.2089 ( 39) -0.2210 ( 46)  0.1547 ( 48)
          -0.1404 ( 55)  0.1172 ( 56)  0.1415 ( 57) -0.1102 ( 63)  0.1224 ( 68)
           0.1578 ( 70)  0.1489 ( 72)  0.1431 ( 73)  0.1206 ( 75)  0.1353 ( 94)
          -0.1446 (101)  0.1315 (102)  0.2177 (103)  0.2052 (108)  0.1160 (109)
           0.1225 (112) -0.1161 (113) -0.1484 (114)  0.1090 (118)  0.1291 (119)
           0.2184 (120)  0.2077 (121)  0.1215 (122)
 CRD 19=   0.1761 (  3) -0.1420 (  6)  0.3426 (  9) -0.4634 ( 11)  0.1513 ( 13)
          -0.3713 ( 14) -0.1505 ( 19)  0.1226 ( 20) -0.1548 ( 36)  0.1018 ( 65)
           0.1033 ( 66)  0.1194 ( 71)  0.1278 ( 79)  0.1221 ( 81) -0.1162 ( 82)
          -0.1282 ( 84) -0.1024 ( 90)
 CRD 20=  -0.1699 ( 11)  0.2814 ( 14)  0.3009 ( 15) -0.1610 ( 17) -0.1481 ( 21)
          -0.1060 ( 32) -0.1991 ( 38) -0.1147 ( 42)  0.2336 ( 48)  0.1122 ( 50)
          -0.1329 ( 57)  0.1271 ( 63) -0.1141 ( 68) -0.1193 ( 69) -0.2181 ( 70)
          -0.1742 ( 72) -0.1433 ( 73) -0.1148 ( 75) -0.1896 ( 94)  0.1162 ( 99)
           0.1246 (101)  0.1749 (102)  0.1201 (105)  0.2061 (109) -0.1471 (112)
           0.1894 (119)  0.1911 (122)
 CRD 21=   0.1374 ( 11)  0.1660 ( 15) -0.1907 ( 17)  0.2897 ( 19) -0.2291 ( 20)
           0.3424 ( 21) -0.1145 ( 50)  0.1376 ( 53)  0.1416 ( 54) -0.1037 ( 55)
           0.1355 ( 62)  0.1284 ( 63)  0.1291 ( 64)  0.1197 ( 65)  0.1048 ( 67)
           0.1003 ( 71)  0.1067 ( 79) -0.1436 ( 82) -0.1558 ( 83) -0.1765 ( 84)
          -0.1262 ( 85) -0.2184 ( 88) -0.1608 ( 90)  0.1045 ( 95)  0.1347 (100)
           0.1836 (101) -0.1083 (106) -0.1280 (111) -0.1513 (113)  0.1141 (114)
 CRD 22=  -0.1014 (  3)  0.2694 (  9) -0.1161 ( 11)  0.1612 ( 15)  0.2966 ( 19)
           0.2151 ( 21)  0.1988 ( 39)  0.2145 ( 46) -0.1438 ( 55) -0.1504 ( 56)
          -0.1014 ( 65)  0.1244 ( 83)  0.1212 ( 85)  0.1003 ( 87)  0.1396 ( 88)
          -0.1061 ( 98) -0.1211 (100)  0.1832 (102)  0.2308 (103) -0.2632 (108)
          -0.1577 (109)  0.1008 (113)  0.1072 (115)  0.1183 (116) -0.1877 (120)
           0.1515 (121)  0.1038 (122)
 CRD 23=   0.1506 (  9) -0.7026 ( 20) -0.4989 ( 21)  0.1517 ( 54) -0.2153 ( 60)
           0.1782 ( 64)  0.1797 ( 79) -0.1081 (102)  0.1874 (115)
 CRD 24=   0.1526 (  3)  0.1343 ( 10) -0.1237 ( 12) -0.2352 ( 13)  0.4030 ( 15)
          -0.2232 ( 17)  0.1494 ( 20) -0.2796 ( 21)  0.1107 ( 53)  0.1032 ( 55)
          -0.1672 ( 56) -0.1125 ( 64) -0.1411 ( 67) -0.2283 ( 76) -0.1763 ( 78)
          -0.1186 ( 79) -0.1472 ( 80) -0.2244 ( 91) -0.1723 ( 93)  0.1205 (108)
          -0.1267 (115) -0.1552 (116) -0.1839 (117) -0.2359 (118)  0.1133 (120)
 CRD 25=   0.5359 ( 15)  0.6985 ( 17)  0.2315 ( 59)  0.1499 ( 78)  0.1453 ( 93)
          -0.1307 (109)  0.1496 (117) -0.1202 (119)
 CRD 26=   0.1578 (  3) -0.3354 (  9)  0.1183 ( 13)  0.2321 ( 19) -0.3032 ( 21)
           0.1365 ( 39)  0.1227 ( 46) -0.1138 ( 60) -0.1840 ( 67)  0.1030 ( 76)
          -0.1761 ( 80)  0.1314 ( 87)  0.1083 ( 91) -0.1327 ( 98)  0.1663 (102)
           0.2972 (103) -0.2534 (108) -0.1509 (109) -0.1993 (116)  0.1085 (118)
          -0.1660 (120)  0.2108 (121)
 CRD 27=   0.2137 ( 14)  0.1090 ( 50)  0.1830 ( 57)  0.1176 ( 62)  0.1474 ( 63)
          -0.1307 ( 65)  0.1778 ( 68) -0.1739 ( 70)  0.1186 ( 71)  0.2850 ( 72)
          -0.1068 ( 73)  0.1330 ( 74) -0.3026 ( 82)  0.1088 ( 83) -0.1897 ( 84)
           0.1766 ( 88) -0.1434 ( 90) -0.1417 ( 94)  0.2241 ( 95)  0.2539 ( 99)
          -0.2249 (101) -0.2562 (111)  0.2402 (112)  0.1360 (113) -0.1910 (114)
 CRD 28=   0.4027 (  3)  0.1022 (  5)  0.3061 (  6)  0.1863 ( 11) -0.1791 ( 12)
          -0.2592 ( 13) -0.3209 ( 14) -0.2866 ( 25) -0.2565 ( 27) -0.1018 ( 37)
           0.2768 ( 44)  0.2656 ( 45)  0.1349 ( 50) -0.1041 ( 70)  0.1116 ( 88)
           0.1024 (113)
 CRD 29=  -0.1991 (  4)  0.5843 (  6)  0.1047 (  7) -0.1543 (  9)  0.1229 ( 10)
          -0.3931 ( 11) -0.1671 ( 12)  0.2592 ( 13)  0.1087 ( 25) -0.2507 ( 29)
           0.2662 ( 41) -0.1385 ( 44)
 CRD 30=   0.1343 (  9)  0.2542 ( 14) -0.1141 ( 38) -0.1181 ( 48) -0.2471 ( 62)
           0.1674 ( 66) -0.2394 ( 74)  0.2576 ( 75) -0.2299 ( 82) -0.1706 ( 89)
           0.2353 ( 90)  0.1590 ( 94)  0.2230 ( 96)  0.2166 ( 99)  0.1947 (102)
          -0.1215 (104) -0.2345 (107) -0.1900 (109)  0.1252 (110) -0.1325 (112)
          -0.1917 (119)  0.2039 (122)
 CRD 31=   0.2501 (  3)  0.2428 (  5) -0.2608 (  7) -0.2227 (  8)  0.2289 ( 10)
          -0.2853 ( 11)  0.1006 ( 12) -0.2761 ( 13)  0.2731 ( 14)  0.1184 ( 16)
           0.1006 ( 17) -0.1550 ( 20)  0.1043 ( 21) -0.1654 ( 25)  0.2196 ( 37)
           0.1676 ( 44) -0.2068 ( 49) -0.1235 ( 51)  0.1328 ( 58) -0.1156 ( 66)
           0.1120 ( 91)
 CRD 32=  -0.1852 (  3) -0.1544 (  4)  0.1122 (  5)  0.1627 (  6)  0.3668 (  9)
          -0.1485 ( 12) -0.2223 ( 13) -0.2337 ( 15)  0.1883 ( 17)  0.4816 ( 19)
           0.1870 ( 20) -0.2429 ( 21)  0.1063 ( 26) -0.1029 ( 49) -0.1010 ( 88)
          -0.1354 (115)  0.1265 (117)
 CRD 33=   0.1672 (  3) -0.1091 (  4)  0.1470 (  5) -0.1986 (  7)  0.1431 ( 12)
          -0.1213 ( 13) -0.3107 ( 16) -0.1188 ( 17)  0.3025 ( 18)  0.1924 ( 20)
           0.1106 ( 27) -0.1063 ( 29)  0.3516 ( 51)  0.1037 ( 55) -0.1190 ( 56)
          -0.3355 ( 58)  0.1350 ( 59) -0.1663 ( 60)  0.1568 ( 64)  0.1274 ( 79)
           0.1281 ( 93)  0.1878 (115)  0.1395 (117) -0.1241 (119) -0.1002 (120)
 CRD 34=   0.2257 (  3) -0.2510 (  4)  0.1119 (  6) -0.1335 (  7)  0.1145 (  8)
          -0.1378 ( 10)  0.1068 ( 11)  0.2226 ( 12) -0.1881 ( 13)  0.1346 ( 16)
          -0.1511 ( 18)  0.1825 ( 25) -0.1291 ( 26)  0.2743 ( 27) -0.2779 ( 29)
           0.1290 ( 31) -0.1213 ( 32) -0.2076 ( 37)  0.2130 ( 41)  0.1380 ( 43)
          -0.2046 ( 44) -0.1958 ( 45)  0.2099 ( 49) -0.1129 ( 51)  0.1124 (116)
 CRD 35=   0.3435 (  3) -0.1401 (  4) -0.2301 (  5)  0.2533 (  6) -0.2366 (  7)
          -0.2062 (  8)  0.2687 (  9) -0.1682 ( 10)  0.2757 ( 11) -0.1918 ( 12)
           0.4129 ( 13)  0.2853 ( 14)  0.1262 ( 82) -0.1317 ( 99)
 CRD 36=  -0.1460 (  3) -0.1290 (  4)  0.1080 (  6)  0.3321 (  9) -0.1810 ( 13)
           0.1011 ( 15)  0.1218 ( 18) -0.4492 ( 19)  0.1440 ( 21)  0.1059 ( 24)
          -0.1024 ( 28) -0.1399 ( 52) -0.1363 ( 67)  0.1264 ( 76) -0.1435 ( 80)
           0.1172 ( 91)  0.1621 (105) -0.1570 (106) -0.1242 (115) -0.2069 (116)
           0.1218 (117)  0.1997 (118)  0.1114 (121)
 CRD 37=   0.1126 (  3) -0.1374 (  7)  0.1471 (  9)  0.1821 ( 15) -0.1648 ( 17)
          -0.1004 ( 20)  0.1070 ( 32)  0.1486 ( 46) -0.1589 ( 50) -0.1143 ( 53)
          -0.1082 ( 57)  0.1382 ( 78) -0.2042 ( 82) -0.2367 ( 86)  0.1798 ( 94)
           0.1143 ( 95)  0.2249 ( 97)  0.1964 ( 99) -0.1011 (107) -0.1358 (108)
          -0.1591 (112)  0.1011 (117)  0.2441 (119) -0.1423 (121) -0.2826 (122)
 CRD 38=  -0.1185 (  5) -0.1241 ( 13) -0.1557 ( 16)  0.1282 ( 18) -0.1082 ( 32)
           0.1485 ( 38)  0.1412 ( 39) -0.1015 ( 44) -0.1146 ( 46) -0.1414 ( 48)
           0.1361 ( 50) -0.1286 ( 55)  0.1210 ( 56) -0.1714 ( 57) -0.1344 ( 62)
          -0.1879 ( 70) -0.2086 ( 72)  0.1422 ( 74)  0.1725 ( 75)  0.1987 ( 88)
          -0.1512 ( 90) -0.1455 ( 95)  0.1042 ( 96)  0.2283 (101) -0.1288 (102)
           0.1559 (103)  0.1333 (108) -0.1175 (109) -0.1387 (111) -0.1173 (112)
           0.2196 (113)  0.2140 (114)  0.1848 (120)  0.1088 (121) -0.1759 (122)
 CRD 39=  -0.1918 (  3) -0.1730 (  4)  0.4391 (  5) -0.3695 (  7)  0.2725 (  8)
          -0.2533 ( 10)  0.1726 ( 13) -0.1135 ( 16) -0.1003 ( 21) -0.2279 ( 25)
          -0.1292 ( 37)  0.1080 ( 41)  0.2373 ( 44)  0.1219 ( 49) -0.1069 (105)
          -0.1077 (106)  0.1346 (113)  0.1012 (114) -0.1150 (115) -0.1255 (117)
 CRD 40=   0.1221 (  3) -0.1674 (  4)  0.2605 (  5) -0.3987 (  6)  0.2803 (  7)
          -0.1618 (  8)  0.2165 (  9) -0.1123 ( 12) -0.3110 ( 24)  0.2079 ( 25)
          -0.2105 ( 27)  0.1301 ( 28) -0.3083 ( 29)  0.1611 ( 30)  0.1277 ( 36)
           0.1474 ( 41)  0.1026 ( 44)
 CRD 41=  -0.1201 (  3)  0.1861 (  4)  0.1350 (  5) -0.3089 ( 12)  0.1340 ( 13)
           0.1655 ( 14) -0.2240 ( 15)  0.1326 ( 17)  0.1766 ( 21) -0.1050 ( 26)
          -0.1080 ( 27)  0.1665 ( 31) -0.1650 ( 32) -0.1545 ( 37)  0.1208 ( 43)
           0.1272 ( 44)  0.1639 ( 49) -0.1730 ( 56) -0.1200 ( 62) -0.1181 ( 67)
           0.1320 ( 75) -0.2101 ( 76) -0.1573 ( 80) -0.1190 ( 91) -0.1028 ( 95)
           0.1416 (103)  0.1858 (105)  0.1369 (106) -0.1064 (111)  0.1026 (117)
           0.1042 (121)
 CRD 42=   0.1998 (  4)  0.1345 (  6) -0.1861 (  7) -0.1027 ( 11)  0.1176 ( 12)
          -0.1338 ( 17)  0.1147 ( 19) -0.1351 ( 20)  0.1260 ( 22)  0.1056 ( 24)
           0.1183 ( 29) -0.1113 ( 35)  0.1205 ( 36)  0.1165 ( 42) -0.1179 ( 45)
           0.1335 ( 52) -0.1080 ( 54)  0.1274 ( 59)  0.2209 ( 66) -0.1470 ( 70)
           0.1035 ( 72)  0.1473 ( 74)  0.1284 ( 78) -0.1097 ( 79)  0.1827 ( 82)
          -0.1954 ( 89) -0.1311 ( 90) -0.1613 ( 94) -0.1427 ( 95) -0.1605 ( 99)
           0.1049 (102) -0.1281 (104) -0.1343 (109)  0.1645 (110)  0.1894 (112)
          -0.1107 (113)  0.1515 (114)  0.1221 (117)  0.1258 (120)
 CRD 43=  -0.1574 (  3)  0.1359 (  4) -0.1293 (  8) -0.1600 ( 10)  0.1099 ( 11)
          -0.1295 ( 13)  0.1206 ( 14)  0.1796 ( 15) -0.1289 ( 16) -0.2872 ( 18)
           0.1798 ( 20)  0.1001 ( 24) -0.1687 ( 26) -0.1097 ( 28) -0.1553 ( 30)
           0.1007 ( 41)  0.1400 ( 54)  0.1008 ( 55)  0.1196 ( 56) -0.1791 ( 59)
          -0.2219 ( 60)  0.1320 ( 66) -0.1782 ( 67)  0.1380 ( 79)  0.1951 ( 91)
           0.1390 ( 94)  0.1342 ( 97) -0.1059 (108)  0.2050 (115) -0.1156 (117)
           0.1391 (119) -0.1004 (121) -0.1469 (122)
 CRD 44=  -0.1268 (  5)  0.1433 (  7) -0.1537 ( 10)  0.1447 ( 14) -0.2815 ( 16)
           0.2015 ( 17)  0.1899 ( 18) -0.1491 ( 20) -0.1011 ( 28) -0.1105 ( 43)
           0.1042 ( 45)  0.1450 ( 51)  0.1508 ( 53) -0.1339 ( 54) -0.1421 ( 58)
          -0.1599 ( 59)  0.1042 ( 61)  0.1506 ( 62) -0.1007 ( 65)  0.1556 ( 68)
           0.1050 ( 70)  0.1403 ( 73) -0.1804 ( 78) -0.1112 ( 79) -0.1057 ( 86)
          -0.1383 ( 89)  0.1416 ( 90)  0.1333 ( 91)  0.1440 ( 92) -0.1248 ( 94)
           0.1498 ( 95) -0.1432 ( 96)  0.1430 (111) -0.1168 (112) -0.1457 (117)
           0.1302 (119)
 CRD 45=   0.1259 (  7)  0.1031 (  8) -0.1788 ( 10) -0.1131 ( 13)  0.1366 ( 14)
           0.2575 ( 18) -0.1800 ( 21)  0.1364 ( 35)  0.1132 ( 45)  0.1091 ( 46)
          -0.1338 ( 50) -0.1242 ( 55)  0.2461 ( 60) -0.1092 ( 62)  0.1235 ( 63)
          -0.1084 ( 64)  0.1190 ( 66)  0.1446 ( 67) -0.1945 ( 69) -0.1166 ( 73)
           0.1209 ( 75)  0.1825 ( 80)  0.1013 ( 82) -0.1671 ( 90)  0.1131 ( 92)
           0.1432 ( 93)  0.2530 ( 94) -0.2041 ( 95) -0.1182 (103)  0.1335 (107)
          -0.1039 (108)  0.1831 (112) -0.1307 (115)  0.1223 (116) -0.1223 (120)
          -0.1019 (121)
 CRD 46=   0.1146 (  5) -0.1049 (  8) -0.1072 (  9)  0.1930 ( 11) -0.1941 ( 15)
           0.2216 ( 16) -0.1328 ( 19)  0.1811 ( 23) -0.1022 ( 30)  0.1435 ( 37)
           0.1382 ( 41)  0.1032 ( 48) -0.1363 ( 52) -0.1153 ( 55) -0.1762 ( 56)
           0.1286 ( 58)  0.1209 ( 59) -0.1549 ( 61)  0.1024 ( 62)  0.1486 ( 66)
           0.1035 ( 71) -0.1346 ( 76)  0.1424 ( 79)  0.1339 ( 80)  0.1371 ( 85)
           0.1208 ( 88) -0.1795 ( 89) -0.1054 ( 91)  0.1254 ( 92) -0.1022 ( 94)
          -0.1252 ( 96) -0.1153 ( 98) -0.1698 (100)  0.1033 (103)  0.1183 (111)
          -0.1192 (112) -0.1009 (113)  0.1906 (114) -0.1652 (118)  0.1100 (120)
 CRD 47=   0.1557 (  3) -0.2178 (  4)  0.3189 (  8)  0.1232 ( 17) -0.1520 ( 18)
           0.1098 ( 21)  0.1570 ( 22)  0.2286 ( 26)  0.1504 ( 30) -0.1925 ( 31)
          -0.1574 ( 33)  0.1215 ( 40) -0.1675 ( 60)  0.1455 ( 61)  0.2041 ( 64)
          -0.1378 ( 71)  0.1292 ( 79) -0.1442 ( 95)  0.1009 (103) -0.1585 (106)
           0.1635 (112) -0.2928 (116)  0.1199 (119)  0.1065 (120)
 CRD 48=  -0.1059 (  9)  0.2444 ( 10) -0.2701 ( 12)  0.1501 ( 15)  0.1496 ( 20)
          -0.2002 ( 21)  0.1081 ( 28) -0.1857 ( 32) -0.1337 ( 34)  0.1617 ( 42)
           0.1896 ( 43)  0.1217 ( 54) -0.1345 ( 55)  0.1177 ( 58) -0.1287 ( 59)
           0.1271 ( 67) -0.1273 ( 78) -0.1094 ( 81)  0.1433 ( 85)  0.1204 ( 87)
          -0.1189 ( 93)  0.1923 (105) -0.1161 (106) -0.1330 (108) -0.1566 (113)
           0.1607 (117)  0.3193 (118) -0.1333 (121)
 CRD 49=  -0.1002 (  7) -0.1617 (  8)  0.1314 ( 10)  0.1130 ( 12) -0.2295 ( 14)
          -0.1974 ( 16)  0.2465 ( 17)  0.1554 ( 18)  0.1035 ( 28)  0.1050 ( 32)
          -0.1450 ( 35) -0.1104 ( 45)  0.1045 ( 47) -0.1142 ( 49)  0.1174 ( 51)
           0.1507 ( 53) -0.1875 ( 59) -0.1546 ( 73)  0.1642 ( 76)  0.2184 ( 77)
           0.1073 ( 83) -0.2778 ( 93)  0.1983 ( 96) -0.1274 ( 97) -0.1101 ( 98)
          -0.1607 (104)  0.1003 (105)  0.1412 (109) -0.1723 (117)  0.1239 (119)
 CRD 50=   0.1796 (  4)  0.1313 (  9) -0.1853 ( 10) -0.2213 ( 11)  0.1250 ( 12)
           0.1098 ( 16)  0.1853 ( 20) -0.1415 ( 21) -0.1555 ( 23)  0.1821 ( 31)
           0.1290 ( 32)  0.2009 ( 36) -0.1525 ( 37)  0.1103 ( 38) -0.1547 ( 52)
           0.1245 ( 54) -0.1388 ( 55)  0.1229 ( 58)  0.1539 ( 64)  0.1330 ( 67)
           0.1191 ( 68) -0.1015 ( 71)  0.1254 ( 74)  0.1183 ( 77) -0.1065 ( 80)
          -0.2731 ( 81)  0.2147 ( 86)  0.1271 ( 87) -0.1134 ( 97)  0.1045 (100)
          -0.1032 (102)  0.2002 (110)  0.1108 (114)  0.1047 (115) -0.1083 (118)
 CRD 51=  -0.1590 ( 22) -0.1203 ( 28)  0.1777 ( 33) -0.1132 ( 34) -0.2096 ( 40)
          -0.1134 ( 41) -0.1094 ( 46) -0.1060 ( 61)  0.2643 ( 63) -0.1286 ( 66)
           0.1512 ( 68)  0.2421 ( 71) -0.1712 ( 73) -0.1497 ( 81) -0.2465 ( 84)
           0.1153 ( 94) -0.2433 ( 95)  0.1804 ( 96)  0.1039 (102)  0.3357 (111)
          -0.1562 (112) -0.1302 (121)
 CRD 52=  -0.2175 (  4) -0.1525 ( 22) -0.1078 ( 28) -0.1526 ( 34)  0.1531 ( 35)
           0.1082 ( 37) -0.1355 ( 40) -0.1108 ( 41) -0.1148 ( 42) -0.1126 ( 58)
          -0.1440 ( 63) -0.2078 ( 65)  0.1307 ( 69)  0.1004 ( 70) -0.1688 ( 72)
           0.1506 ( 74) -0.1321 ( 75) -0.1393 ( 77)  0.2231 ( 83)  0.2154 ( 84)
           0.1469 ( 95) -0.2316 (104)  0.1774 (107)  0.1871 (110) -0.2280 (111)
          -0.2661 (113)  0.2279 (114)
 CRD 53=   0.1035 ( 40) -0.1182 ( 53) -0.1005 ( 54)  0.1510 ( 63)  0.1537 ( 68)
          -0.1071 ( 73) -0.1754 ( 84)  0.1471 ( 85)  0.1660 ( 86) -0.2215 ( 87)
          -0.1083 ( 95) -0.1574 ( 97)  0.2240 ( 98) -0.1455 (100) -0.2863 (102)
           0.1024 (108)  0.2445 (109)  0.1638 (111) -0.1195 (112) -0.1118 (113)
           0.1443 (114) -0.1369 (119) -0.2789 (120)  0.3480 (121)  0.1012 (122)
 CRD 54=  -0.1599 ( 12) -0.3156 ( 22)  0.1841 ( 23)  0.2167 ( 34) -0.1362 ( 38)
           0.1685 ( 40) -0.3767 ( 42)  0.1122 ( 43) -0.1326 ( 45)  0.1329 ( 57)
          -0.1957 ( 65)  0.1469 ( 68) -0.1100 ( 69)  0.1068 ( 81)  0.1988 ( 83)
          -0.1050 ( 84) -0.1044 ( 85)  0.1158 ( 89) -0.1053 ( 95)  0.1245 (100)
          -0.1875 (104)  0.2327 (110)  0.1228 (111) -0.1088 (112)  0.1256 (114)

 THE DETERMINANT OF THE G MATRIX IS 10**(   -20)


                     --------------------
                     INTERNAL COORDINATES
                     --------------------

                 - - ATOMS - -         COORDINATE      COORDINATE
 NO.   TYPE    I  J  K  L  M  N        (BOHR,RAD)       (ANG,DEG)
 ----------------------------------------------------------------
   1 STRETCH   4 10                     3.7844048       2.0026209
   2 STRETCH   7  8                     3.7763102       1.9983375
   3 STRETCH   1 11                     2.0536662       1.0867535
   4 STRETCH   1  4                     2.7978364       1.4805514
   5 STRETCH   1  2                     2.5338141       1.3408368
   6 STRETCH   2 12                     2.0435944       1.0814237
   7 STRETCH   2  5                     2.8078968       1.4858751
   8 STRETCH   3  4                     2.5698484       1.3599053
   9 STRETCH   3 13                     2.0515601       1.0856390
  10 STRETCH   3  7                     2.8411962       1.5034964
  11 STRETCH   4 14                     2.0711790       1.0960208
  12 STRETCH   5  7                     2.8713705       1.5194639
  13 STRETCH   5  6                     2.3234056       1.2294934
  14 STRETCH   7 15                     2.0638210       1.0921271
  15 STRETCH   8 16                     2.0640868       1.0922678
  16 STRETCH   8  9                     2.8442016       1.5050868
  17 STRETCH   8 17                     2.0663515       1.0934662
  18 STRETCH   9 10                     2.5652391       1.3574662
  19 STRETCH   9 18                     2.0543234       1.0871012
  20 STRETCH  10 20                     2.0650977       1.0928027
  21 STRETCH  10 19                     2.0706667       1.0957497
  22 BEND      1  4 10                  1.8435652     105.6285057
  23 BEND      1  4  3                  2.0078224     115.0397502
  24 BEND      1  2  5                  2.0743172     118.8496197
  25 BEND      1  2 12                  2.1558914     123.5234764
  26 BEND      1  4 14                  2.0117233     115.2632519
  27 BEND      2  5  6                  2.0856760     119.5004331
  28 BEND      2  5  7                  2.0574859     117.8852569
  29 BEND      2  1 11                  2.1036684     120.5313198
  30 BEND      2  1  4                  2.1423861     122.7496839
  31 BEND      3  4 14                  2.0630715     118.2052912
  32 BEND      3  7 15                  2.0107599     115.2080541
  33 BEND      3  4 10                  1.7939182     102.7839414
  34 BEND      3  7  8                  1.7985888     103.0515451
  35 BEND      3  7  5                  1.9868084     113.8357344
  36 BEND      4  3  7                  2.0232153     115.9216951
  37 BEND      4  3 13                  2.1034850     120.5208130
  38 BEND      4 10 19                  1.5373097      88.0813595
  39 BEND      4 10 20                  1.7940414     102.7909992
  40 BEND      4 10  9                  1.9112506     109.5065902
  41 BEND      4  1 11                  2.0371012     116.7173038
  42 BEND      5  7  8                  1.8219982     104.3928049
  43 BEND      5  7 15                  1.9669534     112.6981264
  44 BEND      5  2 12                  2.0529543     117.6256182
  45 BEND      6  5  7                  2.1394886     122.5836675
  46 BEND      7  8 17                  1.7974715     102.9875281
  47 BEND      7  8  9                  1.8446412     105.6901529
  48 BEND      7  8 16                  1.8562628     106.3560215
  49 BEND      7  3 13                  2.0680586     118.4910285
  50 BEND      8  7 15                  1.8534648     106.1957124
  51 BEND      8  9 18                  2.0482176     117.3542214
  52 BEND      8  9 10                  2.0944476     120.0030069
  53 BEND      9  8 16                  2.0134616     115.3628545
  54 BEND      9 10 19                  2.0182570     115.6376072
  55 BEND      9 10 20                  2.0605047     118.0582216
  56 BEND      9  8 17                  1.9607783     112.3443195
  57 BEND     10  4 14                  1.6744928      95.9413698
  58 BEND     10  9 18                  2.0908005     119.7940448
  59 BEND     16  8 17                  1.9692749     112.8311397
  60 BEND     19 10 20                  2.0393635     116.8469205
  61 TORSION   1  4 10  9              -2.0876451    -119.6132517
  62 TORSION   1  2  5  6              -3.0058307    -172.2214128
  63 TORSION   1  2  5  7               0.1015352       5.8175357
  64 TORSION   1  4 10 19              -0.0529763      -3.0353207
  65 TORSION   1  4  3  7               0.8153261      46.7147464
  66 TORSION   1  4  3 13              -2.7721571    -158.8329038
  67 TORSION   1  4 10 20               1.9910403     114.0782066
  68 TORSION   2  1  4  3              -0.4769710     -27.3284232
  69 TORSION   2  5  7  8              -1.7240323     -98.7797759
  70 TORSION   2  5  7 15               2.5554964     146.4191589
  71 TORSION   2  1  4 10               1.4882610      85.2710761
  72 TORSION   2  1  4 14              -2.9705535    -170.2001777
  73 TORSION   2  5  7  3               0.2239006      12.8285618
  74 TORSION   3  4  1 11               2.6563914     152.2000183
  75 TORSION   3  7  5  6              -2.9530463    -169.1970913
  76 TORSION   3  7  8 17               1.8803631     107.7368685
  77 TORSION   3  7  8  9              -0.1797688     -10.2999941
  78 TORSION   3  7  8 16              -2.3283066    -133.4021437
  79 TORSION   3  4 10 19               2.0578250     117.9046892
  80 TORSION   3  4 10 20              -2.1813436    -124.9817834
  81 TORSION   3  4 10  9               0.0231563       1.3267582
  82 TORSION   4  1  2 12              -3.1308868    -179.3865980
  83 TORSION   4  3  7  5              -0.6968794     -39.9282477
  84 TORSION   4  1  2  5               0.0033264       0.1905912
  85 TORSION   4  3  7  8               1.2651926      72.4901938
  86 TORSION   4 10  9 18              -1.7930146    -102.7321695
  87 TORSION   4 10  9  8               1.0063799      57.6613229
  88 TORSION   4  3  7 15              -3.0075978    -172.3226596
  89 TORSION   5  7  3 13               2.8811363     165.0769524
  90 TORSION   5  2  1 11              -3.1297313    -179.3203944
  91 TORSION   5  7  8 17              -2.3225006    -133.0694805
  92 TORSION   5  7  8  9               1.9005528     108.8936569
  93 TORSION   5  7  8 16              -0.2479850     -14.2084928
  94 TORSION   6  5  7 15              -0.6214506     -35.6064942
  95 TORSION   6  5  2 12               0.1288184       7.3807527
  96 TORSION   6  5  7  8               1.3822060      79.1945710
  97 TORSION   7  8  9 18               1.9117912     109.5375654
  98 TORSION   7  8  9 10              -0.8957594     -51.3232341
  99 TORSION   7  5  2 12              -3.0470010    -174.5802988
 100 TORSION   7  3  4 10              -1.1789113     -67.5466406
 101 TORSION   7  3  4 14              -2.9942711    -171.5590960
 102 TORSION   8  9 10 19              -0.6954061     -39.8438335
 103 TORSION   8  9 10 20               3.0495227     174.7247790
 104 TORSION   8  7  3 13              -1.4399770     -82.5046061
 105 TORSION   9  8  7 15              -2.3004605    -131.8066774
 106 TORSION   9 10  4 14               2.1301569     122.0489985
 107 TORSION  10  4  1 11              -1.6615619     -95.2004824
 108 TORSION  10  9  8 17              -2.8432491    -162.9061741
 109 TORSION  10  9  8 16               1.1495036      65.8617029
 110 TORSION  10  4  3 13               1.5167908      86.9057092
 111 TORSION  11  1  2 12               0.0192408       1.1024164
 112 TORSION  11  1  4 14               0.1628089       9.3282638
 113 TORSION  13  3  7 15               0.5704179      32.6825405
 114 TORSION  13  3  4 14              -0.2985690     -17.1067463
 115 TORSION  14  4 10 19              -2.1183597    -121.3730705
 116 TORSION  14  4 10 20              -0.0743431      -4.2595431
 117 TORSION  15  7  8 16               1.8341870     105.0911730
 118 TORSION  15  7  8 17              -0.2403286     -13.7698147
 119 TORSION  16  8  9 18              -2.3261312    -133.2774976
 120 TORSION  17  8  9 18              -0.0356985      -2.0453746
 121 TORSION  18  9 10 20               0.2501281      14.3312866
 122 TORSION  18  9 10 19               2.7883847     159.7626741

     ------------------------------------------
     THE POINT GROUP IS C1 , NAXIS= 0, ORDER= 1
     ------------------------------------------

     DIMENSIONS OF THE SYMMETRY SUBSPACES ARE
 A   =   60

 ..... DONE SETTING UP THE RUN .....
 STEP CPU TIME =     0.09 TOTAL CPU TIME =          0.1 (      0.0 MIN)
 TOTAL WALL CLOCK TIME=          0.1 SECONDS, CPU UTILIZATION IS   100.00%


          -----------------------------
          STATIONARY POINT LOCATION RUN
          -----------------------------


           ** GEOMETRY CONSTRAINTS ARE BEING APPLIED. **

          TRANSFORMING DISPLACEMENT FROM INTERNALS TO CARTESIANS
          THE ROOT MEAN SQUARE ERROR IN ITERATION   1 IS   0.00000138
          THE ROOT MEAN SQUARE ERROR IN ITERATION   2 IS   0.00000000
 WARNING! THE RADIUS IN CARTESIANS IS    0.00950
 OBTAINING INITIAL HESSIAN, HESS=CALC    

     ---------------------------------
     HESSIAN MATRIX CONTROL PARAMETERS
     ---------------------------------
     METHOD=ANALYTIC   NVIB  =       2   VIBSIZ= 0.01000
     RDHESS=       F   PURIFY=       F   PRTIFC=       F
     VIBANL=       F   DECOMP=       F   PROJCT=       F
     SCLFAC= 1.00000   PRTSCN=       F   NPRT  =       0
     PULCOR=       F   NPUN  =       0   REDOVB=       T
     HSSTYP=GENERAL 
 Old integral subroutine is used

     ------------------------------
     CPHF RESPONSE SOLUTION OPTIONS
     ------------------------------
     POLAR  =       F     NWORD  =       0
     CPHF   =AO      

          ********************
          1 ELECTRON INTEGRALS
          ********************
 ...... END OF ONE-ELECTRON INTEGRALS ......
 STEP CPU TIME =     0.04 TOTAL CPU TIME =          0.1 (      0.0 MIN)
 TOTAL WALL CLOCK TIME=          0.1 SECONDS, CPU UTILIZATION IS   100.00%

          -------------
          GUESS OPTIONS
          -------------
          GUESS =HUCKEL            NORB  =       0          NORDER=       0
          MIX   =       F          PRTMO =       F          PUNMO =       F
          TOLZ  = 1.0E-08          TOLE  = 1.0E-05
          SYMDEN=       F          PURIFY=       F

 INITIAL GUESS ORBITALS GENERATED BY HUCKEL   ROUTINE.
 HUCKEL GUESS REQUIRES     53820 WORDS.

 SYMMETRIES FOR INITIAL GUESS ORBITALS FOLLOW.   BOTH SET(S).
    36 ORBITALS ARE OCCUPIED (   10 CORE ORBITALS).
    11=A       12=A       13=A       14=A       15=A       16=A       17=A   
    18=A       19=A       20=A       21=A       22=A       23=A       24=A   
    25=A       26=A       27=A       28=A       29=A       30=A       31=A   
    32=A       33=A       34=A       35=A       36=A       37=A       38=A   
    39=A       40=A       41=A       42=A       43=A       44=A       45=A   
    46=A   
 ...... END OF INITIAL ORBITAL SELECTION ......
 STEP CPU TIME =     0.01 TOTAL CPU TIME =          0.1 (      0.0 MIN)
 TOTAL WALL CLOCK TIME=          0.2 SECONDS, CPU UTILIZATION IS    93.33%

                    ----------------------
                    AO INTEGRAL TECHNOLOGY
                    ----------------------
     S,P,L SHELL ROTATED AXIS INTEGRALS, REPROGRAMMED BY
        KAZUYA ISHIMURA (IMS) AND JOSE SIERRA (SYNSTAR).
     S,P,D,L SHELL ROTATED AXIS INTEGRALS PROGRAMMED BY
        KAZUYA ISHIMURA (INSTITUTE FOR MOLECULAR SCIENCE).
     S,P,D,F,G SHELL TO TOTAL QUARTET ANGULAR MOMENTUM SUM 5,
        ERIC PROGRAM BY GRAHAM FLETCHER (ELORET AND NASA ADVANCED
        SUPERCOMPUTING DIVISION, AMES RESEARCH CENTER).
     S,P,D,F,G,L SHELL GENERAL RYS QUADRATURE PROGRAMMED BY
        MICHEL DUPUIS (PACIFIC NORTHWEST NATIONAL LABORATORY).

          --------------------
          2 ELECTRON INTEGRALS
          --------------------

 THE -PK- OPTION IS OFF, THE INTEGRALS ARE NOT IN SUPERMATRIX FORM.
 STORING   15000 INTEGRALS/RECORD ON DISK, USING 12 BYTES/INTEGRAL.
 TWO ELECTRON INTEGRAL EVALUATION REQUIRES   89821 WORDS OF MEMORY.
 SCHWARZ INEQUALITY OVERHEAD:      1797 INTEGRALS, T=        0.00
 II,JST,KST,LST =  1  1  1  1 NREC =         1 INTLOC =    1
 II,JST,KST,LST =  2  1  1  1 NREC =         1 INTLOC =    2
 II,JST,KST,LST =  3  1  1  1 NREC =         1 INTLOC =   34
 II,JST,KST,LST =  4  1  1  1 NREC =         1 INTLOC =  144
 II,JST,KST,LST =  5  1  1  1 NREC =         1 INTLOC = 1366
 II,JST,KST,LST =  6  1  1  1 NREC =         1 INTLOC = 1900
 II,JST,KST,LST =  7  1  1  1 NREC =         1 INTLOC = 6745
 II,JST,KST,LST =  8  1  1  1 NREC =         1 INTLOC = 8573
 II,JST,KST,LST =  9  1  1  1 NREC =         2 INTLOC = 6092
 II,JST,KST,LST = 10  1  1  1 NREC =         2 INTLOC = 9873
 II,JST,KST,LST = 11  1  1  1 NREC =         4 INTLOC = 5316
 II,JST,KST,LST = 12  1  1  1 NREC =         4 INTLOC =11429
 II,JST,KST,LST = 13  1  1  1 NREC =         7 INTLOC = 6158
 II,JST,KST,LST = 14  1  1  1 NREC =         8 INTLOC = 2668
 II,JST,KST,LST = 15  1  1  1 NREC =        12 INTLOC =14045
 II,JST,KST,LST = 16  1  1  1 NREC =        13 INTLOC =14405
 II,JST,KST,LST = 17  1  1  1 NREC =        21 INTLOC =  470
 II,JST,KST,LST = 18  1  1  1 NREC =        22 INTLOC = 5710
 II,JST,KST,LST = 19  1  1  1 NREC =        32 INTLOC = 2205
 II,JST,KST,LST = 20  1  1  1 NREC =        34 INTLOC = 3423
 II,JST,KST,LST = 21  1  1  1 NREC =        47 INTLOC =13692
 II,JST,KST,LST = 22  1  1  1 NREC =        51 INTLOC =12272
 II,JST,KST,LST = 23  1  1  1 NREC =        55 INTLOC =14487
 II,JST,KST,LST = 24  1  1  1 NREC =        60 INTLOC = 7038
 II,JST,KST,LST = 25  1  1  1 NREC =        65 INTLOC = 2615
 II,JST,KST,LST = 26  1  1  1 NREC =        70 INTLOC = 4958
 II,JST,KST,LST = 27  1  1  1 NREC =        75 INTLOC =11893
 II,JST,KST,LST = 28  1  1  1 NREC =        81 INTLOC = 5153
 II,JST,KST,LST = 29  1  1  1 NREC =        86 INTLOC =13154
 II,JST,KST,LST = 30  1  1  1 NREC =        93 INTLOC = 4610
 SCHWARZ INEQUALITY TEST SKIPPED       25149 INTEGRAL BLOCKS.
 TOTAL NUMBER OF NONZERO TWO-ELECTRON INTEGRALS =             1478465
         99 INTEGRAL RECORDS WERE STORED ON DISK FILE  8.
  ...... END OF TWO-ELECTRON INTEGRALS .....
 STEP CPU TIME =     0.34 TOTAL CPU TIME =          0.5 (      0.0 MIN)
 TOTAL WALL CLOCK TIME=          0.5 SECONDS, CPU UTILIZATION IS    94.12%

          --------------------------
                 RHF SCF CALCULATION
          --------------------------

     NUCLEAR ENERGY =       505.5977475295
     MAXIT =   30     NPUNCH=    2
     EXTRAP=T  DAMP=F  SHIFT=F  RSTRCT=F  DIIS=F  DEM=F  SOSCF=T
     DENSITY MATRIX CONV=  1.00E-05
     SOSCF WILL OPTIMIZE     864 ORBITAL ROTATIONS, SOGTOL=   0.250
     MEMORY REQUIRED FOR RHF ITERS=     59496 WORDS.

 ITER EX DEM     TOTAL ENERGY        E CHANGE  DENSITY CHANGE     ORB. GRAD
   1  0  0     -415.4850016413  -415.4850016413   0.567879101   0.000000000
          ---------------START SECOND ORDER SCF---------------
   2  1  0     -415.9991070690    -0.5141054277   0.337074658   0.060780792
   3  2  0     -416.0318216124    -0.0327145433   0.161341651   0.049580308
   4  3  0     -416.0660494475    -0.0342278351   0.024759855   0.005950653
   5  4  0     -416.0669648954    -0.0009154480   0.008205305   0.003076788
   6  5  0     -416.0671025919    -0.0001376964   0.002233718   0.000830866
   7  6  0     -416.0671224294    -0.0000198375   0.000940016   0.000234318
   8  7  0     -416.0671243771    -0.0000019477   0.000473255   0.000101722
   9  8  0     -416.0671247879    -0.0000004108   0.000111248   0.000033353
  10  9  0     -416.0671248411    -0.0000000531   0.000070460   0.000015872
  11 10  0     -416.0671248495    -0.0000000084   0.000022451   0.000003247
  12 11  0     -416.0671248505    -0.0000000010   0.000011842   0.000002190
  13 12  0     -416.0671248507    -0.0000000002   0.000007415   0.000000858
  14 13  0     -416.0671248508    -0.0000000000   0.000001812   0.000000295

          -----------------
          DENSITY CONVERGED
          -----------------
     TIME TO FORM FOCK OPERATORS=       0.3 SECONDS (       0.0 SEC/ITER)
     TIME TO SOLVE SCF EQUATIONS=       0.0 SECONDS (       0.0 SEC/ITER)

 FINAL RHF ENERGY IS     -416.0671248508 AFTER  14 ITERATIONS

          ------------
          EIGENVECTORS
          ------------

                      1          2          3          4          5
                  -20.2543   -11.1106   -11.0515   -11.0509   -11.0500
                     A          A          A          A          A   
    1  C  1  S    0.000007  -0.000414  -0.027617  -0.009773  -0.002874
    2  C  1  S    0.000017   0.000126  -0.007348  -0.000784  -0.000162
    3  C  1  X    0.000081  -0.000017   0.004375   0.000326   0.000051
    4  C  1  Y    0.000026   0.000008  -0.000654   0.000103   0.000031
    5  C  1  Z    0.000002   0.000002  -0.000369  -0.000006   0.000008
    6  C  2  S   -0.000026  -0.000821  -0.001065  -0.000973  -0.000184
    7  C  2  S    0.000374  -0.006032   0.000380   0.000198   0.000076
    8  C  2  X    0.000236   0.002526  -0.000170  -0.000058  -0.000023
    9  C  2  Y   -0.000415   0.003333   0.000111   0.000073   0.000001
   10  C  2  Z   -0.000084   0.000720   0.000001  -0.000001   0.000016
   11  C  3  S    0.000005  -0.000292   0.009233  -0.001121  -0.001209
   12  C  3  S    0.000014   0.000095  -0.006971  -0.006120  -0.001692
   13  C  3  X   -0.000081  -0.000054  -0.002725  -0.001114  -0.000280
   14  C  3  Y   -0.000019  -0.000012  -0.003093   0.003815   0.001082
   15  C  3  Z    0.000006   0.000029  -0.002463  -0.000033  -0.000011
   16  C  4  S    0.000003  -0.000351   0.989715   0.056808   0.007970
   17  C  4  S    0.000015  -0.000074   0.036983   0.002283   0.000377
   18  C  4  X   -0.000007  -0.000065  -0.000037   0.000016  -0.000017
   19  C  4  Y    0.000039   0.000128  -0.000526   0.000032   0.000031
   20  C  4  Z   -0.000001   0.000030  -0.001999  -0.000156  -0.000050
   21  C  5  S    0.000557   0.992509   0.000219   0.002666   0.001167
   22  C  5  S   -0.007138   0.033170   0.000288  -0.005630  -0.001592
   23  C  5  X   -0.002355   0.000494  -0.000228   0.004047   0.001117
   24  C  5  Y    0.005759  -0.000245  -0.000120  -0.000735  -0.000201
   25  C  5  Z    0.001044   0.000122  -0.000075  -0.000018  -0.000016
   26  O  6  S    0.994275   0.000183   0.000007  -0.000016  -0.000015
   27  O  6  S    0.025895  -0.005838  -0.000070   0.000217   0.000116
   28  O  6  X   -0.002036   0.000651   0.000031  -0.000186  -0.000082
   29  O  6  Y    0.005056  -0.001661  -0.000036   0.000061   0.000035
   30  O  6  Z    0.000924  -0.000321   0.000005  -0.000021   0.000017
   31  C  7  S   -0.000022  -0.001888  -0.056951   0.950085   0.280439
   32  C  7  S    0.000258  -0.005553  -0.001976   0.033983   0.007380
   33  C  7  X    0.000066  -0.003973  -0.000169   0.000489   0.000821
   34  C  7  Y   -0.000425   0.000891  -0.000137   0.000437   0.000878
   35  C  7  Z   -0.000120   0.000212  -0.000109  -0.000965  -0.002604
   36  C  8  S   -0.000007  -0.000333   0.008340  -0.279652   0.952089
   37  C  8  S    0.000030   0.000113   0.000444  -0.012245   0.032569
   38  C  8  X    0.000050  -0.000171   0.000017  -0.000438  -0.000862
   39  C  8  Y   -0.000003  -0.000088   0.000006  -0.000536  -0.000758
   40  C  8  Z   -0.000008   0.000108  -0.000104   0.001687   0.002198
   41  C  9  S    0.000000   0.000019  -0.000378   0.000096  -0.001400
   42  C  9  S   -0.000002   0.000015   0.000258   0.001779  -0.005542
   43  C  9  X   -0.000008   0.000042   0.000135   0.000247  -0.000730
   44  C  9  Y   -0.000000   0.000015   0.000190  -0.001035   0.003446
   45  C  9  Z   -0.000000  -0.000007  -0.000088  -0.000669   0.001974
   46  C 10  S    0.000000   0.000039  -0.019506  -0.001143  -0.002298
   47  C 10  S   -0.000000   0.000037  -0.003438  -0.000248   0.000030
   48  C 10  X   -0.000003   0.000038  -0.000465  -0.000048   0.000040
   49  C 10  Y    0.000001   0.000011  -0.000675   0.000014   0.000022
   50  C 10  Z   -0.000001   0.000007   0.002418   0.000197   0.000069
   51  H 11  S   -0.000023  -0.000062   0.000286   0.000025   0.000007
   52  H 12  S   -0.000212   0.000022  -0.000033  -0.000050  -0.000016
   53  H 13  S   -0.000024  -0.000065   0.000071   0.000076   0.000020
   54  H 14  S   -0.000017  -0.000042  -0.006813  -0.000478  -0.000090
   55  H 15  S   -0.000129  -0.000058   0.000267  -0.006634  -0.001847
   56  H 16  S   -0.000003  -0.000454  -0.000063   0.002006  -0.006531
   57  H 17  S    0.000004  -0.000065  -0.000072   0.002012  -0.006540
   58  H 18  S   -0.000001   0.000004   0.000000  -0.000036   0.000100
   59  H 19  S    0.000006  -0.000096   0.000123   0.000035  -0.000129
   60  H 20  S   -0.000001  -0.000008   0.000327   0.000015  -0.000064

                      6          7          8          9         10
                  -11.0482   -11.0366   -11.0254   -11.0203   -11.0045
                     A          A          A          A          A   
    1  C  1  S    0.991659  -0.000401  -0.015622   0.001718  -0.000021
    2  C  1  S    0.035749   0.000092  -0.008427   0.000113  -0.000017
    3  C  1  X    0.000315  -0.000015  -0.001714   0.000054   0.000014
    4  C  1  Y   -0.001181  -0.000059   0.004105   0.000185  -0.000031
    5  C  1  Z   -0.000318   0.000215   0.001315   0.000203   0.000013
    6  C  2  S    0.016192   0.000669   0.992023   0.006435  -0.000009
    7  C  2  S   -0.007131   0.000073   0.036422   0.000183  -0.000011
    8  C  2  X    0.001700  -0.000017  -0.001032   0.000170   0.000002
    9  C  2  Y   -0.003974   0.000003   0.001147  -0.000011  -0.000003
   10  C  2  Z   -0.001257   0.000039   0.000424   0.000072   0.000001
   11  C  3  S   -0.001466  -0.002040  -0.006344   0.992118   0.007286
   12  C  3  S   -0.000216  -0.000119  -0.000354   0.035961  -0.000227
   13  C  3  X   -0.000240   0.000032  -0.000206   0.000429   0.000165
   14  C  3  Y    0.000010   0.000036   0.000051   0.000323   0.000173
   15  C  3  Z    0.000028  -0.000059  -0.000006   0.002531  -0.000595
   16  C  4  S    0.029136   0.020472   0.000713  -0.008392   0.000146
   17  C  4  S   -0.004984  -0.001937   0.000423  -0.007923   0.000160
   18  C  4  X   -0.004139   0.000626   0.000121   0.002908   0.000027
   19  C  4  Y    0.000734   0.000765   0.000021   0.002691   0.000019
   20  C  4  Z    0.000578  -0.002385  -0.000055   0.002524   0.000051
   21  C  5  S    0.000534  -0.000037   0.001803   0.000367  -0.000021
   22  C  5  S    0.000056   0.000012  -0.006249   0.000076   0.000002
   23  C  5  X    0.000158  -0.000012  -0.002717  -0.000006   0.000005
   24  C  5  Y   -0.000176  -0.000003  -0.003234  -0.000111   0.000009
   25  C  5  Z   -0.000050   0.000016  -0.000726   0.000050   0.000033
   26  O  6  S    0.000014   0.000001  -0.000019   0.000009   0.000000
   27  O  6  S   -0.000127  -0.000003   0.000307  -0.000077   0.000001
   28  O  6  X    0.000003   0.000002   0.000040   0.000037   0.000002
   29  O  6  Y   -0.000071  -0.000002   0.000195  -0.000024   0.000002
   30  O  6  Z   -0.000008   0.000000   0.000032  -0.000019  -0.000004
   31  C  7  S    0.008636   0.000635   0.000792   0.002899   0.000310
   32  C  7  S    0.000303   0.000034   0.000236  -0.005760   0.000093
   33  C  7  X   -0.000095  -0.000034   0.000031   0.000947   0.000000
   34  C  7  Y   -0.000076  -0.000003   0.000033  -0.004142  -0.000058
   35  C  7  Z   -0.000055  -0.000083  -0.000021  -0.000126  -0.000040
   36  C  8  S    0.000229   0.002120  -0.000107   0.000793   0.002300
   37  C  8  S   -0.000011   0.000162   0.000011   0.000150  -0.005706
   38  C  8  X    0.000010  -0.000127   0.000016   0.000045   0.000823
   39  C  8  Y    0.000003  -0.000061   0.000002  -0.000104  -0.003638
   40  C  8  Z    0.000021   0.000031  -0.000000   0.000090  -0.002055
   41  C  9  S    0.000022   0.008961   0.000047  -0.007044   0.992141
   42  C  9  S   -0.000026  -0.007298   0.000016  -0.000708   0.035980
   43  C  9  X    0.000006  -0.003109  -0.000001  -0.000026   0.000704
   44  C  9  Y   -0.000030  -0.003450   0.000011  -0.000206   0.001571
   45  C  9  Z   -0.000021  -0.000164  -0.000005   0.000623  -0.001293
   46  C 10  S   -0.000213   0.991907  -0.000728   0.002348  -0.008288
   47  C 10  S    0.000337   0.036421   0.000080   0.000191  -0.007912
   48  C 10  X    0.000138  -0.000720   0.000090   0.000077   0.003224
   49  C 10  Y   -0.000120  -0.001427  -0.000007   0.000063   0.003431
   50  C 10  Z    0.000180   0.000957   0.000019   0.000165   0.000153
   51  H 11  S   -0.006824   0.000015   0.000215  -0.000114   0.000002
   52  H 12  S    0.000023  -0.000004  -0.006838  -0.000100   0.000001
   53  H 13  S   -0.000084   0.000015  -0.000010  -0.006873  -0.000089
   54  H 14  S   -0.000132  -0.000022  -0.000087   0.000168  -0.000024
   55  H 15  S   -0.000108  -0.000032  -0.000057   0.000011  -0.000045
   56  H 16  S    0.000007   0.000011  -0.000012  -0.000079  -0.000098
   57  H 17  S    0.000002  -0.000110  -0.000000  -0.000013   0.000038
   58  H 18  S    0.000007   0.000053  -0.000002   0.000079  -0.006909
   59  H 19  S   -0.001047  -0.006809  -0.000227  -0.000029   0.000021
   60  H 20  S   -0.000015  -0.006806  -0.000003  -0.000055   0.000152

                     11         12         13         14         15
                   -1.3066    -1.0879    -1.0079    -0.9581    -0.9331
                     A          A          A          A          A   
    1  C  1  S   -0.006766  -0.111294   0.086291   0.098063  -0.023061
    2  C  1  S    0.016109   0.284426  -0.229006  -0.266754   0.066132
    3  C  1  X    0.000628  -0.041431  -0.014556  -0.066192  -0.084673
    4  C  1  Y   -0.007219  -0.040761   0.048563   0.066830   0.076495
    5  C  1  Z   -0.001955  -0.007262   0.020151   0.016223   0.030739
    6  C  2  S   -0.024649  -0.082898   0.088282   0.115691   0.074522
    7  C  2  S    0.058744   0.210028  -0.231473  -0.310350  -0.203298
    8  C  2  X   -0.019106  -0.047408   0.030790   0.011863   0.030102
    9  C  2  Y   -0.023217   0.042585  -0.040888  -0.058602   0.035432
   10  C  2  Z   -0.004606   0.015499  -0.011846  -0.022518   0.008500
   11  C  3  S   -0.005098  -0.108049  -0.003693  -0.130020  -0.032303
   12  C  3  S    0.011757   0.273715   0.010529   0.353257   0.084257
   13  C  3  X    0.003203   0.055142  -0.017263   0.019395   0.025919
   14  C  3  Y   -0.003847   0.007050  -0.012962  -0.025354   0.124257
   15  C  3  Z    0.000891   0.046585   0.009199   0.023899   0.051861
   16  C  4  S   -0.003644  -0.127977   0.017699  -0.046216  -0.124498
   17  C  4  S    0.008650   0.333519  -0.046534   0.122962   0.349599
   18  C  4  X    0.001242   0.010579  -0.050915  -0.099943  -0.013322
   19  C  4  Y   -0.002698  -0.052435  -0.000459  -0.039769   0.012326
   20  C  4  Z   -0.001520  -0.036277   0.030251  -0.058821  -0.012537
   21  C  5  S   -0.128031  -0.035306   0.022268  -0.000474   0.079176
   22  C  5  S    0.297749   0.096516  -0.062679   0.000808  -0.230777
   23  C  5  X    0.056976  -0.028839  -0.028086  -0.104570   0.072576
   24  C  5  Y   -0.137635   0.083427  -0.058091  -0.036889  -0.115548
   25  C  5  Z   -0.024601   0.018422  -0.007527  -0.012843  -0.025973
   26  O  6  S   -0.213795   0.038754  -0.016536  -0.001387  -0.056978
   27  O  6  S    0.747948  -0.144974   0.063938   0.006102   0.227848
   28  O  6  X   -0.059525   0.002904  -0.009586  -0.027173   0.017276
   29  O  6  Y    0.149927  -0.006180  -0.006379  -0.010032  -0.021629
   30  O  6  Z    0.027843  -0.000483  -0.000179  -0.003922  -0.005349
   31  C  7  S   -0.021823  -0.073321  -0.014014  -0.107071   0.115240
   32  C  7  S    0.055272   0.197125   0.042110   0.304265  -0.334830
   33  C  7  X    0.028154   0.013718  -0.021863  -0.012119  -0.043701
   34  C  7  Y   -0.005939   0.046378  -0.006539   0.055782   0.027038
   35  C  7  Z   -0.002383   0.004590   0.020015  -0.021554   0.005652
   36  C  8  S   -0.002673  -0.034894  -0.097069   0.013911   0.088576
   37  C  8  S    0.006810   0.096027   0.271177  -0.036298  -0.258966
   38  C  8  X    0.001515   0.001821  -0.012022   0.009387  -0.001251
   39  C  8  Y    0.000261   0.020130   0.048584  -0.017645   0.002541
   40  C  8  Z   -0.001931  -0.000887   0.038527  -0.043050   0.009534
   41  C  9  S   -0.000861  -0.046862  -0.147888   0.069637   0.014538
   42  C  9  S    0.001913   0.117367   0.386042  -0.185398  -0.041622
[...]
 19   H            X -0.04157700 -0.06318362 -0.04456450  0.00281631  0.00034473
                   Y  0.22426721  0.35989225  0.26012208 -0.00682476 -0.00269985
                   Z  0.20182759  0.19280249  0.11715997 -0.00121343  0.00312226
 20   H            X  0.26881042  0.43396258  0.21397874 -0.00729276 -0.00246559
                   Y  0.05004707  0.09801767 -0.02039221 -0.00135644 -0.00149356
                   Z  0.13297725  0.12494411  0.07620581  0.00782948  0.00473195

 TRANS. SAYVETZ    X  0.00000179  0.00000023  0.00000230  0.00000144  0.00000201
                   Y  0.00000078 -0.00000067  0.00000024 -0.00000035  0.00000081
                   Z  0.00000332 -0.00000080  0.00000201  0.00000291  0.00000148
               TOTAL  0.00000385  0.00000107  0.00000306  0.00000326  0.00000262

   ROT. SAYVETZ    X -0.00403880 -0.00173303  0.01345659 -0.00193823 -0.00146677
                   Y  0.00390515 -0.00471650 -0.00266047 -0.00001129 -0.00065924
                   Z  0.00011272 -0.00147381  0.00192649 -0.00041960 -0.00041348
               TOTAL  0.00561915  0.00523650  0.01385169  0.00198316  0.00166041

                           51          52          53          54          55
       FREQUENCY:      3634.38     3638.67     3689.50     3697.31     3699.06  
        SYMMETRY:         A           A           A           A           A   
    REDUCED MASS:      1.06234     1.06454     1.09085     1.09393     1.09617
    IR INTENSITY:      0.02409     0.10810     0.12690     0.07796     0.09981

  1   C            X -0.00040261  0.00004948  0.00473323  0.01439552  0.00703342
                   Y -0.00062682 -0.00006485  0.00760163  0.02070019  0.00961132
                   Z  0.00022949 -0.00013927  0.00293972  0.00796012  0.00372478
  2   C            X  0.00057163  0.00014754 -0.00444986 -0.01418601 -0.00643939
                   Y -0.00013611 -0.00010841  0.00026211  0.00128418  0.00055215
                   Z  0.00004535 -0.00004928  0.00002852 -0.00001305 -0.00004073
  3   C            X  0.00359010  0.00079296 -0.04087670 -0.00704220 -0.00240529
                   Y -0.00109524  0.00034630  0.01062612  0.00697130  0.00122635
                   Z  0.00081810  0.00034882 -0.01045147 -0.00064277 -0.00053533
  4   C            X -0.00086269 -0.00056549  0.00965660  0.01210586  0.00356962
                   Y  0.00328892  0.00044535 -0.03463477 -0.05512244 -0.01818974
                   Z  0.00012392 -0.00105509  0.00007385 -0.00083115 -0.00096201
  5   C            X  0.00019394 -0.00006696 -0.00131750  0.00216958  0.00008684
                   Y -0.00014374 -0.00001223  0.00000847  0.00016737  0.00008975
                   Z  0.00033069  0.00022077  0.00002121  0.00012838  0.00006766
  6   O            X -0.00002079  0.00001385  0.00007974 -0.00026949 -0.00000891
                   Y  0.00001347 -0.00001964 -0.00000239  0.00008284 -0.00000765
                   Z -0.00001240  0.00001732  0.00001242  0.00000716 -0.00001956
  7   C            X -0.00229033 -0.00012577  0.03474614 -0.02993167  0.00372313
                   Y -0.00199967 -0.00128240  0.03653563 -0.03503634  0.00471972
                   Z -0.00179564  0.00037036  0.02765702 -0.02504774  0.00274844
  8   C            X -0.01076957 -0.01643417 -0.00339166 -0.00131075  0.00774378
                   Y  0.03651208  0.05419091  0.00528034  0.00293515 -0.00827504
                   Z -0.00055331 -0.00203503  0.00004018  0.00094061 -0.00079405
  9   C            X -0.00940796 -0.00262344  0.01535899  0.01399710 -0.07959757
                   Y  0.00334628 -0.00662301 -0.00207254 -0.00232329  0.01116683
                   Z -0.00144131 -0.00245996 -0.00073571 -0.00079250  0.00365264
 10   C            X -0.02730091  0.01966261 -0.00427665 -0.00196151  0.00956669
                   Y -0.03851352  0.02697124 -0.00396386 -0.00052256  0.00559187
                   Z -0.02912875  0.02146702 -0.00259308 -0.00109996  0.00362130
 11   H            X  0.00601618  0.00047826 -0.06512205 -0.18266809 -0.08563298
                   Y  0.00679496  0.00096090 -0.07992889 -0.22392622 -0.10490256
                   Z  0.00295125  0.00030734 -0.03198141 -0.08852902 -0.04156484
 12   H            X -0.00702234 -0.00173126  0.04813128  0.16601943  0.07447509
                   Y  0.00146892  0.00051365 -0.00948393 -0.03167153 -0.01423216
                   Z -0.00016203  0.00018440 -0.00102699 -0.00457757 -0.00209498
 13   H            X -0.04286949 -0.00797780  0.47280470  0.08956948  0.03364148
                   Y  0.01218460  0.00219142 -0.13692341 -0.02744791 -0.00984769
                   Z -0.01064077 -0.00200611  0.12298133  0.02272099  0.00860354
 14   H            X  0.00889505  0.00256768 -0.09614553 -0.14725290 -0.04754144
                   Y -0.03912267 -0.01113391  0.40138243  0.62078486  0.20093783
                   Z  0.00186707  0.00082511 -0.00157929 -0.00108567  0.00066854
 15   H            X  0.02431483  0.00260779 -0.38464118  0.34419479 -0.04239384
                   Y  0.02603031  0.00283715 -0.41866442  0.37689043 -0.04652669
                   Z  0.02250455  0.00248900 -0.32321935  0.28906432 -0.03483496
 16   H            X  0.36134895  0.53262555  0.05875886  0.02218216 -0.09056575
                   Y -0.10795085 -0.16075298 -0.01659989 -0.00620931  0.02503457
                   Z  0.06656960  0.09950202  0.00864083  0.00381215 -0.01817961
 17   H            X -0.24365011 -0.35515608 -0.02595350 -0.01069312  0.02045080
                   Y -0.29044695 -0.42259692 -0.03118619 -0.01274737  0.02573402
                   Z -0.04197267 -0.06151028 -0.00622057 -0.00292872  0.00539279
 18   H            X  0.15674795  0.02539878 -0.16914354 -0.15662849  0.88930925
                   Y -0.02312870 -0.00642180  0.02545534  0.02345028 -0.13313139
                   Z -0.00260476 -0.00124532  0.00299087  0.00310620 -0.01765388
 19   H            X  0.52003181 -0.36900938  0.05664423  0.02329490 -0.09160879
                   Y -0.07092480  0.05017737 -0.00734734 -0.00362037  0.01501199
                   Z  0.13292353 -0.09581851  0.01224839  0.00598978 -0.02348601
 20   H            X -0.22769176  0.16001345 -0.01784137 -0.00366844  0.01534834
                   Y  0.47735354 -0.33493531  0.03944641  0.00886073 -0.03527033
                   Z  0.20229461 -0.14147007  0.01478766  0.00328341 -0.01326348

 TRANS. SAYVETZ    X -0.00000053  0.00000001 -0.00000028 -0.00000001  0.00000004
                   Y -0.00000041  0.00000086 -0.00000059 -0.00000051 -0.00000052
                   Z -0.00000104 -0.00000028 -0.00000052 -0.00000005 -0.00000082
               TOTAL  0.00000123  0.00000090  0.00000084  0.00000051  0.00000097

   ROT. SAYVETZ    X  0.00006585 -0.00109040  0.00016022 -0.00120723 -0.00009725
                   Y -0.00048624  0.00011659 -0.00074130  0.00028869  0.00010010
                   Z -0.00015318 -0.00020863 -0.00013390 -0.00016015  0.00005147
               TOTAL  0.00051403  0.00111628  0.00077015  0.00125156  0.00014875

                           56          57          58          59          60
       FREQUENCY:      3704.96     3715.92     3736.08     3785.93     3787.60  
        SYMMETRY:         A           A           A           A           A   
    REDUCED MASS:      1.09180     1.10091     1.10597     1.11705     1.11747
    IR INTENSITY:      0.49321     0.07565     0.06454     0.00023     0.01748

  1   C            X -0.03916012  0.00398218 -0.02399146  0.00018931  0.00017245
                   Y -0.04654475  0.00148661 -0.04091376  0.00026571  0.00041263
                   Z -0.01833113  0.00074085 -0.01537929  0.00030890  0.00033490
  2   C            X  0.03965370 -0.01154117 -0.07102345 -0.00006715 -0.00000637
                   Y -0.00451384  0.00264716  0.02066810  0.00002741 -0.00015437
                   Z -0.00014096  0.00047083  0.00436454  0.00005816  0.00007146
  3   C            X -0.01690017 -0.06453936  0.00546003 -0.00019442 -0.00065923
                   Y  0.00711619  0.01899942 -0.00158683 -0.00009784  0.00017649
                   Z -0.00426886 -0.01959302  0.00164063 -0.00007899 -0.00024094
  4   C            X  0.00848759 -0.00642025  0.00291013  0.00021910  0.00010280
                   Y -0.02504832  0.04051703 -0.00618016  0.00027008  0.00074289
                   Z  0.00008234  0.00316575 -0.00032531  0.00000366 -0.00014545
  5   C            X -0.00108455  0.00123208  0.00140204 -0.00001455  0.00001559
                   Y -0.00069961 -0.00015459  0.00180600 -0.00002986 -0.00005459
                   Z -0.00031052 -0.00002781  0.00070076 -0.00012050  0.00015290
  6   O            X  0.00017167 -0.00014202 -0.00006977  0.00000334  0.00000230
                   Y  0.00001232  0.00010956 -0.00032296  0.00001643 -0.00001332
                   Z  0.00000707  0.00003050 -0.00011878 -0.00001128  0.00002262
  7   C            X -0.00847890 -0.01480701  0.00166682 -0.00007773 -0.00005216
                   Y -0.01103105 -0.02214820  0.00214243  0.00020551 -0.00033238
                   Z -0.00742250 -0.01296725  0.00125879  0.00004232 -0.00046640
  8   C            X  0.00069044  0.00139595 -0.00028104  0.05259566 -0.07107792
                   Y -0.00030002  0.00002522  0.00011074  0.01645820 -0.02299196
                   Z  0.00031783  0.00056197 -0.00007254  0.00990318 -0.01336610
  9   C            X -0.00782481 -0.00664975  0.00009335 -0.00070760 -0.00521023
                   Y  0.00087803  0.00087579 -0.00002420 -0.00085935  0.00086815
                   Z  0.00038849  0.00053944 -0.00002424 -0.00025257  0.00055201
 10   C            X  0.00032500  0.00134889 -0.00029632 -0.06185037 -0.04531704
                   Y  0.00108295 -0.00086676  0.00019270  0.04376601  0.03274338
                   Z  0.00014683  0.00036722 -0.00003291  0.00414193  0.00335483
 11   H            X  0.43839183 -0.02705663  0.30832331 -0.00221007 -0.00279350
                   Y  0.53175878 -0.03086580  0.37763387 -0.00305245 -0.00373869
                   Z  0.20862344 -0.01191990  0.14785182 -0.00101773 -0.00120525
 12   H            X -0.46072101  0.13381943  0.77715529  0.00102380  0.00009342
                   Y  0.08820969 -0.02591393 -0.15112124 -0.00018909  0.00007425
                   Z  0.01402487 -0.00395979 -0.02409560 -0.00021859 -0.00019974
 13   H            X  0.19815115  0.71202610 -0.05667584  0.00153354  0.00718679
                   Y -0.05900853 -0.20747453  0.01687213 -0.00031069 -0.00209291
                   Z  0.05236437  0.18860044 -0.01527298  0.00043125  0.00179396
 14   H            X -0.07039178  0.10056473 -0.01685929  0.00125811  0.00217387
                   Y  0.28665938 -0.42643925  0.06596367 -0.00627147 -0.00958530
                   Z -0.00074619 -0.00112063  0.00021646  0.00048811  0.00040659
 15   H            X  0.10127732  0.18181793 -0.01641814 -0.00232165  0.00506323
                   Y  0.11047184  0.20076611 -0.01817937 -0.00272181  0.00565144
                   Z  0.08474331  0.15234250 -0.01389612 -0.00237198  0.00494698
 16   H            X -0.00699586 -0.01188540  0.00327293 -0.36858031  0.49549416
                   Y  0.00165683  0.00304513 -0.00078175  0.11317882 -0.15215387
                   Z -0.00144178 -0.00248885  0.00035053 -0.07071396  0.09436218
 17   H            X  0.00025705 -0.00348099 -0.00010947 -0.25285243  0.34386994
                   Y  0.00021426 -0.00427249 -0.00003963 -0.30543927  0.41445857
                   Z -0.00014271 -0.00092387 -0.00001317 -0.04293394  0.05814940
 18   H            X  0.08739356  0.07458938 -0.00083274  0.00852568  0.06427071
                   Y -0.01311048 -0.01116510  0.00022688  0.00294060 -0.00964634
                   Z -0.00188590 -0.00145837 -0.00002354  0.00092989 -0.00316760
 19   H            X -0.00377107 -0.01256850  0.00330820  0.52276494  0.38259736
                   Y  0.00078136  0.00232152 -0.00079384 -0.06978918 -0.05076168
                   Z -0.00149413 -0.00319615  0.00116611  0.13880888  0.10123549
 20   H            X  0.00292276 -0.00253514  0.00083036  0.20877526  0.15502287
                   Y -0.00647006  0.00553523 -0.00145218 -0.44308595 -0.32785380
                   Z -0.00244789  0.00205331 -0.00069686 -0.18999105 -0.14055635

 TRANS. SAYVETZ    X -0.00000011 -0.00000013  0.00000035 -0.00000002 -0.00000005
                   Y -0.00000036  0.00000022 -0.00000067 -0.00000003 -0.00000003
                   Z -0.00000012  0.00000006 -0.00000003  0.00000001 -0.00000013
               TOTAL  0.00000040  0.00000026  0.00000076  0.00000004  0.00000015

   ROT. SAYVETZ    X -0.00046511  0.00011436 -0.00003564 -0.00071591 -0.00002156
                   Y  0.00004106  0.00031593 -0.00006439 -0.00004223 -0.00136341
                   Z -0.00005515  0.00015150 -0.00002284 -0.00014510 -0.00040272
               TOTAL  0.00047016  0.00036857  0.00007706  0.00073169  0.00142180

 REFERENCE ON SAYVETZ CONDITIONS - A. SAYVETZ, J.CHEM.PHYS., 7, 383-389(1939).

 NOTE - THE MODES J,K ARE ORTHONORMALIZED ACCORDING TO
 SUM ON I   M(I) * (X(I,J)*X(I,K) + Y(I,J)*Y(I,K) + Z(I,J)*Z(I,K)) = DELTA(J,K)

  MODE FREQ(CM**-1)  SYMMETRY  RED. MASS  IR INTENS.
     1    1104.994    A        9.336320    0.024438
     2       0.100    A        6.690983    0.000084
     3       0.016    A        6.701968    0.000000
     4       0.002    A        6.704322    0.000000
     5       1.318    A        4.816919    0.014663
     6      29.803    A        5.883312    0.016432
     7      35.527    A        4.151162    0.000976
     8     110.878    A        4.141875    0.027788
     9     202.478    A        3.543779    0.015244
    10     257.629    A        4.167632    0.030012
    11     373.523    A        5.306778    0.031218
    12     410.072    A        5.714738    0.169476
    13     456.159    A        1.990924    0.060956
    14     487.385    A        3.518483    0.073840
    15     497.044    A        4.515504    0.135679
    16     536.879    A        1.988262    0.232632
    17     571.007    A        2.523489    0.187708
    18     603.718    A        5.428922    0.017898
    19     674.650    A        5.932641    0.035842
    20     837.172    A        3.389924    0.044543
    21     852.943    A        4.092491    0.044861
    22     924.905    A        1.631348    1.213053
    23     935.652    A        1.773696    0.148953
    24     971.299    A        1.615309    0.876706
    25     995.196    A        1.363744    0.223666
    26    1024.028    A        1.418782    0.041911
    27    1084.954    A        1.843662    0.188673
    28    1122.426    A        2.888978    0.002521
    29    1171.554    A        1.969447    0.073773
    30    1201.807    A        1.126058    0.032718
    31    1209.746    A        1.271772    0.004282
    32    1228.689    A        1.502938    0.136433
    33    1260.309    A        1.270601    0.222932
    34    1278.556    A        1.151107    0.415253
    35    1305.233    A        1.232955    0.015796
    36    1328.670    A        1.260898    0.107136
    37    1355.689    A        1.265899    0.031091
    38    1358.675    A        1.123570    0.018951
    39    1419.242    A        1.832832    0.645136
    40    1471.296    A        1.329804    0.100824
    41    1484.859    A        1.782811    0.004907
    42    1600.476    A        1.605296    0.150786
    43    1639.544    A        1.715670    0.150847
    44    1668.126    A        1.505848    0.061167
    45    1726.932    A        2.547582    0.326601
    46    1758.901    A        1.900176    0.050325
    47    1811.296    A        1.277845    0.196194
    48    1863.201    A        2.593730    0.054481
    49    2004.881    A        7.006017    0.061339
    50    2075.568    A       10.556416    1.847541
    51    3634.381    A        1.062338    0.024089
    52    3638.667    A        1.064543    0.108100
    53    3689.497    A        1.090852    0.126900
    54    3697.315    A        1.093928    0.077962
    55    3699.057    A        1.096172    0.099812
    56    3704.963    A        1.091802    0.493207
    57    3715.919    A        1.100907    0.075651
    58    3736.076    A        1.105975    0.064544
    59    3785.932    A        1.117046    0.000227
    60    3787.596    A        1.117472    0.017475

     -------------------------------
     THERMOCHEMISTRY AT T=  298.15 K
     -------------------------------

 USING IDEAL GAS, RIGID ROTOR, HARMONIC NORMAL MODE APPROXIMATIONS.
 P=  1.01325E+05 PASCAL.
 ALL FREQUENCIES ARE SCALED BY   1.00000
 THE MOMENTS OF INERTIA ARE (IN AMU*BOHR**2)
            864.48582          1322.58345          1660.98612
 THE ROTATIONAL SYMMETRY NUMBER IS  1.0
 THE ROTATIONAL CONSTANTS ARE (IN GHZ)
      2.08573     1.36331     1.08555
   1 IMAGINARY FREQUENCY VIBRATION(S) IS(ARE) EXCLUDED
     FROM THE FOLLOWING THERMOCHEMICAL ANALYSIS.
      8 -     60 VIBRATIONAL MODES ARE USED IN THERMOCHEMISTRY.
 THE HARMONIC ZERO POINT ENERGY IS (SCALED BY   1.000)
        0.191919 HARTREE/MOLECULE    42121.324492 CM**-1/MOLECULE 
      120.431031 KCAL/MOL              503.883433 KJ/MOL

               Q               LN Q
 ELEC.     1.00000E+00       0.000000
 TRANS.    6.10192E+07      17.926699
 ROT.      4.93304E+05      13.108881
 VIB.      1.47686E+01       2.692505
 TOT.      4.44551E+14      33.728085

              E         H         G         CV        CP        S
           KJ/MOL    KJ/MOL    KJ/MOL   J/MOL-K   J/MOL-K   J/MOL-K
 ELEC.      0.000     0.000     0.000     0.000     0.000     0.000
 TRANS.     3.718     6.197   -44.439    12.472    20.786   169.836
 ROT.       3.718     3.718   -32.496    12.472    12.472   121.464
 VIB.     515.202   515.202   497.209    94.217    94.217    60.348
 TOTAL    522.639   525.118   420.274   119.161   127.475   351.649
 VIB. THERMAL CORRECTION E(T)-E(0) = H(T)-H(0) =     11318.336 J/MOL

              E         H         G         CV        CP        S
         KCAL/MOL  KCAL/MOL  KCAL/MOL CAL/MOL-K CAL/MOL-K CAL/MOL-K
 ELEC.      0.000     0.000     0.000     0.000     0.000     0.000
 TRANS.     0.889     1.481   -10.621     2.981     4.968    40.592
 ROT.       0.889     0.889    -7.767     2.981     2.981    29.031
 VIB.     123.136   123.136   118.836    22.518    22.518    14.424
 TOTAL    124.914   125.506   100.448    28.480    30.467    84.046
 VIB. THERMAL CORRECTION E(T)-E(0) = H(T)-H(0) =      2705.147 CAL/MOL

     *******************************************************
     * THIS IS NOT A STATIONARY POINT ON THE MOLECULAR PES *
     *     THE VIBRATIONAL ANALYSIS IS NOT VALID !!!       *
     *******************************************************
 ......END OF NORMAL COORDINATE ANALYSIS......
 STEP CPU TIME =     0.02 TOTAL CPU TIME =        178.9 (      3.0 MIN)
 TOTAL WALL CLOCK TIME=        179.3 SECONDS, CPU UTILIZATION IS    99.78%
               580000  WORDS OF DYNAMIC MEMORY USED
 EXECUTION OF GAMESS TERMINATED NORMALLY Mon Nov 15 03:28:33 2021
 DDI: 263640 bytes (0.3 MB / 0 MWords) used by master data server.

 ----------------------------------------
 CPU timing information for all processes
 ========================================
 0: 176.451 + 2.509 = 178.960
 ----------------------------------------
 ddikick.x: exited gracefully.
----- accounting info -----
Files used on the master node chemcompute-node-0.novalocal were:
-rw-r--r--. 1 chemcomp chemcomp     1348 Nov 15 03:25 /scratch/306632/342646.F05
-rw-rw-r--. 1 chemcomp chemcomp 18001600 Nov 15 03:27 /scratch/306632/342646.F08
-rw-rw-r--. 1 chemcomp chemcomp 85196800 Nov 15 03:28 /scratch/306632/342646.F10
-rw-rw-r--. 1 chemcomp chemcomp   878880 Nov 15 03:28 /scratch/306632/342646.F18
Mon Nov 15 03:28:37 UTC 2021
0.206u 0.120s 3:04.92 0.1%	0+0k 8+216io 0pf+0w
Finishing Up...
Looking for IR data...
Looking for Raman data...
vibramans not found
Looking for thermodynamics data...
Looking for UV-Vis data...
306632
